       N       E                     dE             d eps       ncg     rms          rms(c)
DAV:   1     0.955355604473E+00    0.95536E+00   -0.42904E+03  1868   0.618E+02
DAV:   2    -0.162586487930E+02   -0.17214E+02   -0.16765E+02  2188   0.122E+02
DAV:   3    -0.164839103569E+02   -0.22526E+00   -0.22496E+00  1964   0.100E+01
DAV:   4    -0.164840412189E+02   -0.13086E-03   -0.13086E-03  1884   0.307E-01
DAV:   5    -0.164840412790E+02   -0.60140E-07   -0.60140E-07  1964   0.584E-03
DAV:   6    -0.164840412791E+02   -0.90608E-10   -0.82894E-10  1376   0.182E-04
