unknown system                          
   1.00000000000000     
    -1.613990    0.000000    1.613990
     0.000000    1.613990    1.613990
    -1.613990    1.613990    0.000000
   C 
     2
Direct
  0.875000  0.875000  0.875000
  0.125000  0.125000  0.125000
 
   28   28   28
  18.407      18.321      18.083      17.681      17.115      16.476      15.951      15.746      15.951      16.476    
  17.115      17.681      18.083      18.321      18.407      18.321      18.083      17.681      17.115      16.476    
  15.951      15.746      15.951      16.476      17.115      17.681      18.083      18.321      18.321      18.510    
  18.459      18.098      17.459      16.751      16.280      16.280      16.751      17.459      18.098      18.459    
  18.510      18.321      17.962      17.460      16.877      16.247      15.611      15.064      14.739      14.739    
  15.064      15.611      16.247      16.877      17.460      17.962      18.083      18.459      18.438      17.957    
  17.168      16.430      16.129      16.430      17.168      17.957      18.438      18.459      18.083      17.460    
  16.708      15.894      15.098      14.373      13.768      13.355      13.207      13.355      13.768      14.373    
  15.098      15.894      16.708      17.460      17.681      18.098      17.957      17.291      16.414      15.798    
  15.798      16.414      17.291      17.957      18.098      17.681      16.877      15.894      14.863      13.879    
  13.012      12.307      11.800      11.532      11.532      11.800      12.307      13.012      13.879      14.863    
  15.894      16.877      17.115      17.459      17.168      16.414      15.637      15.310      15.637      16.414    
  17.168      17.459      17.115      16.247      15.098      13.879      12.711      11.693      10.873      10.267    
  9.8926      9.7651      9.8926      10.267      10.873      11.693      12.711      13.879      15.098      16.247    
  16.476      16.751      16.430      15.798      15.310      15.310      15.798      16.430      16.751      16.476    
  15.611      14.373      13.012      11.693      10.523      9.5758      8.8687      8.3983      8.1623      8.1623    
  8.3983      8.8688      9.5758      10.523      11.693      13.012      14.373      15.611      15.951      16.280    
  16.129      15.798      15.637      15.798      16.129      16.280      15.951      15.064      13.768      12.307    
  10.873      9.5758      8.5035      7.6872      7.1193      6.7847      6.6740      6.7847      7.1193      7.6872    
  8.5035      9.5758      10.873      12.307      13.768      15.064      15.746      16.280      16.430      16.414    
  16.414      16.430      16.280      15.746      14.739      13.355      11.800      10.267      8.8687      7.6872    
  6.7669      6.1035      5.6761      5.4669      5.4669      5.6761      6.1035      6.7669      7.6872      8.8688    
  10.267      11.800      13.355      14.739      15.951      16.751      17.168      17.291      17.168      16.751    
  15.951      14.739      13.207      11.532      9.8926      8.3983      7.1193      6.1035      5.3500      4.8357    
  4.5372      4.4393      4.5372      4.8357      5.3500      6.1035      7.1193      8.3983      9.8926      11.532    
  13.207      14.739      16.476      17.459      17.957      17.957      17.459      16.476      15.064      13.355    
  11.532      9.7651      8.1623      6.7847      5.6761      4.8357      4.2388      3.8576      3.6718      3.6718    
  3.8576      4.2388      4.8357      5.6761      6.7847      8.1623      9.7651      11.532      13.355      15.064    
  17.115      18.098      18.438      18.098      17.115      15.611      13.768      11.800      9.8926      8.1623    
  6.6740      5.4669      4.5372      3.8576      3.3966      3.1296      3.0421      3.1296      3.3966      3.8576    
  4.5372      5.4669      6.6740      8.1623      9.8926      11.800      13.768      15.611      17.681      18.459    
  18.459      17.681      16.247      14.373      12.307      10.267      8.3983      6.7847      5.4669      4.4393    
  3.6718      3.1296      2.7835      2.6149      2.6149      2.7835      3.1296      3.6718      4.4393      5.4669    
  6.7847      8.3983      10.267      12.307      14.373      16.247      18.083      18.510      18.083      16.877    
  15.098      13.012      10.873      8.8687      7.1193      5.6761      4.5372      3.6718      3.0421      2.6149    
  2.3670      2.2858      2.3670      2.6149      3.0421      3.6718      4.5372      5.6761      7.1193      8.8687    
  10.873      13.012      15.098      16.877      18.321      18.321      17.460      15.894      13.879      11.693    
  9.5758      7.6872      6.1035      4.8357      3.8576      3.1296      2.6149      2.2858      2.1252      2.1252    
  2.2858      2.6149      3.1296      3.8576      4.8357      6.1035      7.6872      9.5758      11.693      13.879    
  15.894      17.460      18.407      17.962      16.708      14.863      12.711      10.523      8.5035      6.7669    
  5.3500      4.2388      3.3966      2.7835      2.3670      2.1252      2.0458      2.1252      2.3670      2.7835    
  3.3966      4.2388      5.3500      6.7669      8.5035      10.523      12.711      14.863      16.708      17.962    
  18.321      17.460      15.894      13.879      11.693      9.5758      7.6872      6.1035      4.8357      3.8576    
  3.1296      2.6149      2.2858      2.1252      2.1252      2.2858      2.6149      3.1296      3.8576      4.8357    
  6.1035      7.6872      9.5758      11.693      13.879      15.894      17.460      18.321      18.083      16.877    
  15.098      13.012      10.873      8.8687      7.1193      5.6761      4.5372      3.6718      3.0421      2.6149    
  2.3670      2.2858      2.3670      2.6149      3.0421      3.6718      4.5372      5.6761      7.1193      8.8687    
  10.873      13.012      15.098      16.877      18.083      18.510      17.681      16.247      14.373      12.307    
  10.267      8.3983      6.7847      5.4669      4.4393      3.6718      3.1296      2.7835      2.6149      2.6149    
  2.7835      3.1296      3.6718      4.4393      5.4669      6.7847      8.3983      10.267      12.307      14.373    
  16.247      17.681      18.459      18.459      17.115      15.611      13.768      11.800      9.8926      8.1623    
  6.6740      5.4669      4.5372      3.8576      3.3966      3.1296      3.0421      3.1296      3.3966      3.8576    
  4.5372      5.4669      6.6740      8.1623      9.8926      11.800      13.768      15.611      17.115      18.098    
  18.438      18.098      16.476      15.064      13.355      11.532      9.7651      8.1623      6.7847      5.6761    
  4.8357      4.2388      3.8576      3.6718      3.6718      3.8576      4.2388      4.8357      5.6761      6.7847    
  8.1623      9.7651      11.532      13.355      15.064      16.476      17.459      17.957      17.957      17.459    
  15.951      14.739      13.207      11.532      9.8926      8.3983      7.1193      6.1035      5.3500      4.8357    
  4.5372      4.4393      4.5372      4.8357      5.3500      6.1035      7.1193      8.3983      9.8926      11.532    
  13.207      14.739      15.951      16.751      17.168      17.291      17.168      16.751      15.746      14.739    
  13.355      11.800      10.267      8.8688      7.6872      6.7669      6.1035      5.6761      5.4669      5.4669    
  5.6761      6.1035      6.7669      7.6872      8.8687      10.267      11.800      13.355      14.739      15.746    
  16.280      16.430      16.414      16.414      16.430      16.280      15.951      15.064      13.768      12.307    
  10.873      9.5758      8.5035      7.6872      7.1193      6.7847      6.6740      6.7847      7.1193      7.6872    
  8.5035      9.5758      10.873      12.307      13.768      15.064      15.951      16.280      16.129      15.798    
  15.637      15.798      16.129      16.280      16.476      15.611      14.373      13.012      11.693      10.523    
  9.5758      8.8688      8.3983      8.1623      8.1623      8.3983      8.8687      9.5758      10.523      11.693    
  13.012      14.373      15.611      16.476      16.751      16.430      15.798      15.310      15.310      15.798    
  16.430      16.751      17.115      16.247      15.098      13.879      12.711      11.693      10.873      10.267    
  9.8926      9.7651      9.8926      10.267      10.873      11.693      12.711      13.879      15.098      16.247    
  17.115      17.459      17.168      16.414      15.637      15.310      15.637      16.414      17.168      17.459    
  17.681      16.877      15.894      14.863      13.879      13.012      12.307      11.800      11.532      11.532    
  11.800      12.307      13.012      13.879      14.863      15.894      16.877      17.681      18.098      17.957    
  17.291      16.414      15.798      15.798      16.414      17.291      17.957      18.098      18.083      17.460    
  16.708      15.894      15.098      14.373      13.768      13.355      13.207      13.355      13.768      14.373    
  15.098      15.894      16.708      17.460      18.083      18.459      18.438      17.957      17.168      16.430    
  16.129      16.430      17.168      17.957      18.438      18.459      18.321      17.962      17.460      16.877    
  16.247      15.611      15.064      14.739      14.739      15.064      15.611      16.247      16.877      17.460    
  17.962      18.321      18.510      18.459      18.098      17.459      16.751      16.280      16.280      16.751    
  17.459      18.098      18.459      18.510      18.321      18.510      18.459      18.098      17.459      16.751    
  16.280      16.280      16.751      17.459      18.098      18.459      18.510      18.321      17.962      17.460    
  16.877      16.247      15.611      15.064      14.739      14.739      15.064      15.611      16.247      16.877    
  17.460      17.962      18.510      18.874      18.812      18.262      17.390      16.583      16.255      16.583    
  17.390      18.262      18.812      18.874      18.510      17.881      17.113      16.274      15.450      14.698    
  14.069      13.638      13.484      13.638      14.069      14.698      15.450      16.274      17.113      17.881    
  18.459      18.812      18.531      17.665      16.584      15.839      15.839      16.584      17.665      18.531    
  18.812      18.459      17.658      16.643      15.567      14.526      13.604      12.853      12.311      12.024    
  12.024      12.311      12.853      13.604      14.526      15.567      16.643      17.658      18.098      18.262    
  17.665      16.545      15.465      15.020      15.465      16.545      17.665      18.262      18.098      17.283    
  16.105      14.822      13.578      12.480      11.588      10.928      10.519      10.381      10.519      10.928    
  11.588      12.480      13.578      14.822      16.105      17.283      17.459      17.390      16.584      15.465    
  14.669      14.669      15.465      16.584      17.390      17.459      16.755      15.529      14.102      12.694    
  11.426      10.388      9.6098      9.0907      8.8300      8.8300      9.0907      9.6098      10.388      11.426    
  12.694      14.102      15.529      16.755      16.751      16.583      15.839      15.020      14.669      15.020    
  15.839      16.583      16.751      16.157      14.953      13.452      11.927      10.524      9.3468      8.4447    
  7.8161      7.4460      7.3237      7.4460      7.8161      8.4447      9.3468      10.524      11.927      13.452    
  14.953      16.157      16.280      16.255      15.839      15.465      15.465      15.839      16.255      16.280    
  15.667      14.460      12.914      11.305      9.8061      8.5141      7.4974      6.7628      6.2904      6.0596    
  6.0596      6.2904      6.7628      7.4974      8.5141      9.8061      11.305      12.914      14.460      15.667    
  16.280      16.583      16.584      16.545      16.584      16.583      16.280      15.475      14.169      12.548    
  10.859      9.2788      7.8957      6.7802      5.9491      5.3827      5.0549      4.9477      5.0549      5.3827    
  5.9491      6.7802      7.8957      9.2788      10.859      12.548      14.169      15.475      16.751      17.390    
  17.665      17.665      17.390      16.751      15.667      14.169      12.417      10.623      8.9525      7.4850    
  6.2814      5.3626      4.7103      4.2952      4.0938      4.0938      4.2952      4.7103      5.3626      6.2814    
  7.4850      8.9525      10.623      12.417      14.169      15.667      17.459      18.262      18.531      18.262    
  17.459      16.157      14.460      12.548      10.623      8.8415      7.2792      5.9870      4.9835      4.2498    
  3.7539      3.4679      3.3745      3.4679      3.7539      4.2498      4.9835      5.9870      7.2792      8.8415    
  10.623      12.548      14.460      16.157      18.098      18.812      18.812      18.098      16.755      14.953    
  12.914      10.859      8.9525      7.2792      5.8895      4.7974      3.9812      3.4065      3.0413      2.8639    
  2.8639      3.0413      3.4065      3.9812      4.7974      5.8895      7.2792      8.9525      10.859      12.914    
  14.953      16.755      18.459      18.874      18.459      17.283      15.529      13.452      11.305      9.2788    
  7.4850      5.9870      4.7974      3.8929      3.2365      2.7930      2.5367      2.4528      2.5367      2.7930    
  3.2365      3.8929      4.7974      5.9870      7.4850      9.2788      11.305      13.452      15.529      17.283    
  18.510      18.510      17.658      16.105      14.102      11.927      9.8061      7.8957      6.2814      4.9835    
  3.9812      3.2365      2.7114      2.3767      2.2136      2.2136      2.3767      2.7114      3.2365      3.9812    
  4.9835      6.2814      7.8957      9.8061      11.927      14.102      16.105      17.658      18.321      17.881    
  16.643      14.822      12.694      10.524      8.5141      6.7802      5.3626      4.2498      3.4065      2.7930    
  2.3767      2.1351      2.0559      2.1351      2.3767      2.7930      3.4065      4.2498      5.3626      6.7802    
  8.5141      10.524      12.694      14.822      16.643      17.881      17.962      17.113      15.567      13.578    
  11.426      9.3468      7.4974      5.9491      4.7103      3.7539      3.0413      2.5367      2.2136      2.0559    
  2.0559      2.2136      2.5367      3.0413      3.7539      4.7103      5.9491      7.4974      9.3468      11.426    
  13.578      15.567      17.113      17.962      17.460      16.274      14.526      12.480      10.388      8.4447    
  6.7628      5.3827      4.2952      3.4679      2.8639      2.4528      2.2136      2.1351      2.2136      2.4528    
  2.8639      3.4679      4.2952      5.3827      6.7628      8.4447      10.388      12.480      14.526      16.274    
  17.460      17.881      16.877      15.450      13.604      11.588      9.6098      7.8161      6.2904      5.0549    
  4.0938      3.3745      2.8639      2.5367      2.3767      2.3767      2.5367      2.8639      3.3745      4.0938    
  5.0549      6.2904      7.8161      9.6098      11.588      13.604      15.450      16.877      17.658      17.658    
  16.247      14.698      12.853      10.928      9.0907      7.4460      6.0596      4.9477      4.0938      3.4679    
  3.0413      2.7930      2.7114      2.7930      3.0413      3.4679      4.0938      4.9477      6.0596      7.4460    
  9.0907      10.928      12.853      14.698      16.247      17.283      17.647      17.283      15.611      14.069    
  12.311      10.519      8.8300      7.3237      6.0596      5.0549      4.2952      3.7539      3.4065      3.2365    
  3.2365      3.4065      3.7539      4.2952      5.0549      6.0596      7.3237      8.8300      10.519      12.311    
  14.069      15.611      16.755      17.363      17.363      16.755      15.064      13.638      12.024      10.381    
  8.8300      7.4460      6.2904      5.3827      4.7103      4.2498      3.9812      3.8929      3.9812      4.2498    
  4.7103      5.3827      6.2904      7.4460      8.8300      10.381      12.024      13.638      15.064      16.157    
  16.832      17.059      16.832      16.157      14.739      13.484      12.024      10.519      9.0907      7.8161    
  6.7628      5.9491      5.3626      4.9835      4.7974      4.7974      4.9835      5.3626      5.9491      6.7628    
  7.8161      9.0907      10.519      12.024      13.484      14.739      15.667      16.232      16.485      16.485    
  16.232      15.667      14.739      13.638      12.311      10.928      9.6098      8.4447      7.4974      6.7802    
  6.2814      5.9870      5.8895      5.9870      6.2814      6.7802      7.4974      8.4447      9.6098      10.928    
  12.311      13.638      14.739      15.475      15.830      15.927      15.933      15.927      15.830      15.475    
  15.064      14.069      12.853      11.588      10.388      9.3468      8.5141      7.8957      7.4850      7.2792    
  7.2792      7.4850      7.8957      8.5141      9.3468      10.388      11.588      12.853      14.069      15.064    
  15.667      15.830      15.696      15.525      15.525      15.696      15.830      15.667      15.611      14.698    
  13.604      12.480      11.426      10.524      9.8061      9.2788      8.9525      8.8415      8.9525      9.2788    
  9.8061      10.524      11.426      12.480      13.604      14.698      15.611      16.157      16.232      15.927    
  15.525      15.345      15.525      15.927      16.232      16.157      16.247      15.450      14.526      13.578    
  12.694      11.927      11.305      10.859      10.623      10.623      10.859      11.305      11.927      12.694    
  13.578      14.526      15.450      16.247      16.755      16.832      16.485      15.933      15.525      15.525    
  15.933      16.485      16.832      16.755      16.877      16.274      15.567      14.822      14.102      13.452    
  12.914      12.548      12.417      12.548      12.914      13.452      14.102      14.822      15.567      16.274    
  16.877      17.283      17.363      17.059      16.485      15.927      15.696      15.927      16.485      17.059    
  17.363      17.283      17.460      17.113      16.643      16.105      15.529      14.953      14.460      14.169    
  14.169      14.460      14.953      15.529      16.105      16.643      17.113      17.460      17.658      17.647    
  17.363      16.832      16.232      15.830      15.830      16.232      16.832      17.363      17.647      17.658    
  17.962      17.881      17.658      17.283      16.755      16.157      15.667      15.475      15.667      16.157    
  16.755      17.283      17.658      17.881      17.962      17.881      17.658      17.283      16.755      16.157    
  15.667      15.475      15.667      16.157      16.755      17.283      17.658      17.881      18.083      18.459    
  18.438      17.957      17.168      16.430      16.129      16.430      17.168      17.957      18.438      18.459    
  18.083      17.460      16.708      15.894      15.098      14.373      13.768      13.355      13.207      13.355    
  13.768      14.373      15.098      15.894      16.708      17.460      18.459      18.812      18.531      17.665    
  16.584      15.839      15.839      16.584      17.665      18.531      18.812      18.459      17.658      16.643    
  15.567      14.526      13.604      12.853      12.311      12.024      12.024      12.311      12.853      13.604    
  14.526      15.567      16.643      17.658      18.438      18.531      17.814      16.553      15.356      14.866    
  15.357      16.553      17.814      18.531      18.438      17.647      16.461      15.156      13.885      12.758    
  11.841      11.161      10.740      10.597      10.740      11.161      11.841      12.758      13.885      15.156    
  16.461      17.647      17.957      17.665      16.553      15.130      14.143      14.143      15.130      16.553    
  17.665      17.957      17.363      16.156      14.696      13.240      11.918      10.830      10.012      9.4650    
  9.1904      9.1904      9.4650      10.012      10.830      11.918      13.240      14.696      16.156      17.363    
  17.168      16.584      15.356      14.143      13.639      14.143      15.356      16.584      17.168      16.832    
  15.726      14.214      12.630      11.159      9.9113      8.9505      8.2800      7.8852      7.7547      7.8852    
  8.2800      8.9505      9.9113      11.159      12.630      14.214      15.726      16.832      16.430      15.839    
  14.866      14.143      14.143      14.866      15.839      16.430      16.232      15.238      13.739      12.085    
  10.515      9.1418      8.0514      7.2615      6.7536      6.5058      6.5058      6.7536      7.2615      8.0514    
  9.1418      10.515      12.085      13.739      15.238      16.232      16.129      15.839      15.357      15.130    
  15.356      15.839      16.129      15.830      14.837      13.336      11.638      9.9960      8.5358      7.3398    
  6.4437      5.8330      5.4803      5.3651      5.4803      5.8330      6.4437      7.3398      8.5358      9.9960    
  11.638      13.336      14.837      15.830      16.430      16.584      16.553      16.553      16.584      16.430    
  15.830      14.680      13.098      11.335      9.6248      8.0943      6.8133      5.8263      5.1245      4.6788    
  4.4631      4.4631      4.6788      5.1245      5.8263      6.8133      8.0943      9.6248      11.335      13.098    
  14.680      15.830      17.168      17.665      17.814      17.665      17.168      16.232      14.837      13.098    
  11.227      9.4288      7.8224      6.4640      5.3960      4.6124      4.0838      3.7799      3.6808      3.7799    
  4.0838      4.6124      5.3960      6.4640      7.8224      9.4288      11.227      13.098      14.837      16.232    
  17.957      18.531      18.531      17.957      16.832      15.238      13.336      11.335      9.4288      7.7300    
  6.2889      5.1412      4.2799      3.6741      3.2906      3.1049      3.1049      3.2906      3.6741      4.2799    
  5.1412      6.2889      7.7300      9.4288      11.335      13.336      15.238      16.832      18.438      18.812    
  18.438      17.363      15.726      13.739      11.638      9.6248      7.8224      6.2889      5.0567      4.1159    
  3.4339      2.9747      2.7103      2.6239      2.7103      2.9747      3.4339      4.1159      5.0567      6.2889    
  7.8224      9.6248      11.638      13.739      15.726      17.363      18.459      18.459      17.647      16.156    
  14.214      12.085      9.9960      8.0943      6.4640      5.1412      4.1159      3.3546      2.8196      2.4797    
  2.3146      2.3146      2.4797      2.8196      3.3546      4.1159      5.1412      6.4640      8.0943      9.9960    
  12.085      14.214      16.156      17.647      18.083      17.658      16.461      14.696      12.630      10.515    
  8.5358      6.8133      5.3960      4.2799      3.4339      2.8196      2.4038      2.1630      2.0842      2.1630    
  2.4038      2.8196      3.4339      4.2799      5.3960      6.8133      8.5358      10.515      12.630      14.696    
  16.461      17.658      17.460      16.643      15.156      13.240      11.159      9.1418      7.3398      5.8263    
  4.6124      3.6741      2.9747      2.4797      2.1630      2.0085      2.0085      2.1630      2.4797      2.9747    
  3.6741      4.6124      5.8263      7.3398      9.1418      11.159      13.240      15.156      16.643      17.460    
  16.708      15.567      13.885      11.918      9.9113      8.0514      6.4437      5.1245      4.0838      3.2906    
  2.7103      2.3146      2.0842      2.0085      2.0842      2.3146      2.7103      3.2906      4.0838      5.1245    
  6.4437      8.0514      9.9113      11.918      13.885      15.567      16.708      17.113      15.894      14.526    
  12.758      10.830      8.9505      7.2615      5.8330      4.6788      3.7799      3.1049      2.6239      2.3146    
  2.1630      2.1630      2.3146      2.6239      3.1049      3.7799      4.6788      5.8330      7.2615      8.9505    
  10.830      12.758      14.526      15.894      16.643      16.643      15.098      13.604      11.841      10.012    
  8.2800      6.7536      5.4803      4.4631      3.6808      3.1049      2.7103      2.4797      2.4038      2.4797    
  2.7103      3.1049      3.6808      4.4631      5.4803      6.7536      8.2800      10.012      11.841      13.604    
  15.098      16.105      16.461      16.105      14.373      12.853      11.161      9.4650      7.8852      6.5058    
  5.3651      4.4631      3.7799      3.2906      2.9747      2.8196      2.8196      2.9747      3.2906      3.7799    
  4.4631      5.3651      6.5058      7.8852      9.4650      11.161      12.853      14.373      15.529      16.156    
  16.156      15.529      13.768      12.311      10.740      9.1904      7.7547      6.5058      5.4803      4.6788    
  4.0838      3.6741      3.4339      3.3546      3.4339      3.6741      4.0838      4.6788      5.4803      6.5058    
  7.7547      9.1904      10.740      12.311      13.768      14.953      15.726      15.995      15.726      14.953    
  13.355      12.024      10.597      9.1904      7.8852      6.7536      5.8330      5.1245      4.6124      4.2799    
  4.1159      4.1159      4.2799      4.6124      5.1245      5.8330      6.7536      7.8852      9.1904      10.597    
  12.024      13.355      14.460      15.238      15.636      15.636      15.238      14.460      13.207      12.024    
  10.740      9.4650      8.2800      7.2615      6.4437      5.8263      5.3960      5.1412      5.0567      5.1412    
  5.3960      5.8263      6.4437      7.2615      8.2800      9.4650      10.740      12.024      13.207      14.169    
  14.837      15.210      15.327      15.210      14.837      14.169      13.355      12.311      11.161      10.012    
  8.9505      8.0514      7.3398      6.8133      6.4640      6.2889      6.2889      6.4640      6.8133      7.3398    
  8.0514      8.9505      10.012      11.161      12.311      13.355      14.169      14.680      14.920      14.993    
  14.993      14.920      14.680      14.169      13.768      12.853      11.841      10.830      9.9113      9.1418    
  8.5358      8.0943      7.8224      7.7300      7.8224      8.0943      8.5358      9.1418      9.9113      10.830    
  11.841      12.853      13.768      14.460      14.837      14.920      14.850      14.801      14.850      14.920    
  14.837      14.460      14.373      13.604      12.758      11.918      11.159      10.515      9.9960      9.6248    
  9.4288      9.4288      9.6248      9.9960      10.515      11.159      11.918      12.758      13.604      14.373    
  14.953      15.238      15.210      14.993      14.801      14.801      14.993      15.210      15.238      14.953    
  15.098      14.526      13.885      13.240      12.630      12.085      11.638      11.335      11.227      11.335    
  11.638      12.085      12.630      13.240      13.885      14.526      15.098      15.529      15.726      15.636    
  15.327      14.993      14.850      14.993      15.327      15.636      15.726      15.529      15.894      15.567    
  15.156      14.696      14.214      13.739      13.336      13.098      13.098      13.336      13.739      14.214    
  14.696      15.156      15.567      15.894      16.105      16.156      15.995      15.636      15.210      14.920    
  14.920      15.210      15.636      15.995      16.156      16.105      16.708      16.643      16.461      16.156    
  15.726      15.238      14.837      14.680      14.837      15.238      15.726      16.156      16.461      16.643    
  16.708      16.643      16.461      16.156      15.726      15.238      14.837      14.680      14.837      15.238    
  15.726      16.156      16.461      16.643      17.460      17.658      17.647      17.363      16.832      16.232    
  15.830      15.830      16.232      16.832      17.363      17.647      17.658      17.460      17.113      16.643    
  16.105      15.529      14.953      14.460      14.169      14.169      14.460      14.953      15.529      16.105    
  16.643      17.113      17.681      18.098      17.957      17.291      16.414      15.798      15.798      16.414    
  17.291      17.957      18.098      17.681      16.877      15.894      14.863      13.879      13.012      12.307    
  11.800      11.532      11.532      11.800      12.307      13.012      13.879      14.863      15.894      16.877    
  18.098      18.262      17.665      16.545      15.465      15.020      15.465      16.545      17.665      18.262    
  18.098      17.283      16.105      14.822      13.578      12.480      11.588      10.928      10.519      10.381    
  10.519      10.928      11.588      12.480      13.578      14.822      16.105      17.283      17.957      17.665    
  16.553      15.130      14.143      14.143      15.130      16.553      17.665      17.957      17.363      16.156    
  14.696      13.240      11.918      10.830      10.012      9.4650      9.1904      9.1904      9.4650      10.012    
  10.830      11.918      13.240      14.696      16.156      17.363      17.291      16.545      15.130      13.764    
  13.201      13.764      15.130      16.545      17.291      17.059      15.995      14.482      12.878      11.383    