unknown system                          
   1.00000000000000     
    -1.613990    0.000000    1.613990
     0.000000    1.613990    1.613990
    -1.613990    1.613990    0.000000
   C 
     2
Direct
  0.875000  0.875000  0.875000
  0.125000  0.125000  0.125000
 
   28   28   28
 0.18406958503E+02 0.18321265007E+02 0.18082508028E+02 0.17680593531E+02 0.17115458048E+02
 0.16475514670E+02 0.15950973005E+02 0.15746479934E+02 0.15950972961E+02 0.16475514590E+02
 0.17115457935E+02 0.17680593383E+02 0.18082507841E+02 0.18321264806E+02 0.18406958289E+02
 0.18321264806E+02 0.18082507841E+02 0.17680593383E+02 0.17115457935E+02 0.16475514590E+02
 0.15950972961E+02 0.15746479934E+02 0.15950973005E+02 0.16475514670E+02 0.17115458048E+02
 0.17680593531E+02 0.18082508028E+02 0.18321265007E+02 0.18321265007E+02 0.18509884527E+02
 0.18459323568E+02 0.18097500659E+02 0.17459372945E+02 0.16750757647E+02 0.16280324848E+02
 0.16280324862E+02 0.16750757653E+02 0.17459372854E+02 0.18097500426E+02 0.18459323217E+02
 0.18509884155E+02 0.18321264747E+02 0.17961869314E+02 0.17460278663E+02 0.16876942190E+02
 0.16246818652E+02 0.15610955970E+02 0.15063735281E+02 0.14739342604E+02 0.14739342628E+02
 0.15063735326E+02 0.15610955969E+02 0.16246818586E+02 0.16876942081E+02 0.17460278602E+02
 0.17961869405E+02 0.18082508028E+02 0.18459323568E+02 0.18438221839E+02 0.17957044841E+02
 0.17167786857E+02 0.16429977454E+02 0.16128659618E+02 0.16429977550E+02 0.17167786938E+02
 0.17957044761E+02 0.18438221551E+02 0.18459323171E+02 0.18082507694E+02 0.17460278500E+02
 0.16708166936E+02 0.15893746265E+02 0.15097630790E+02 0.14372794215E+02 0.13768353690E+02
 0.13355160110E+02 0.13206724623E+02 0.13355160136E+02 0.13768353669E+02 0.14372794060E+02
 0.15097630496E+02 0.15893745961E+02 0.16708166786E+02 0.17460278602E+02 0.17680593531E+02
 0.18097500659E+02 0.17957044841E+02 0.17291283780E+02 0.16413826663E+02 0.15798040816E+02
 0.15798040893E+02 0.16413826835E+02 0.17291283897E+02 0.17957044776E+02 0.18097500421E+02
 0.17680593252E+02 0.16876941933E+02 0.15893746049E+02 0.14863091346E+02 0.13878599269E+02
 0.13011959393E+02 0.12306972533E+02 0.11800155168E+02 0.11531765190E+02 0.11531765208E+02
 0.11800155179E+02 0.12306972439E+02 0.13011959152E+02 0.13878598940E+02 0.14863091064E+02
 0.15893745961E+02 0.16876942081E+02 0.17115458048E+02 0.17459372945E+02 0.17167786857E+02
 0.16413826663E+02 0.15636728971E+02 0.15309655632E+02 0.15636729086E+02 0.16413826808E+02
 0.17167786926E+02 0.17459372888E+02 0.17115457908E+02 0.16246818467E+02 0.15097630488E+02
 0.13878599063E+02 0.12710619844E+02 0.11693160360E+02 0.10873265410E+02 0.10267490338E+02
 0.98925571593E+01 0.97651045529E+01 0.98925572030E+01 0.10267490367E+02 0.10873265362E+02
 0.11693160210E+02 0.12710619654E+02 0.13878598940E+02 0.15097630496E+02 0.16246818586E+02
 0.16475514670E+02 0.16750757647E+02 0.16429977454E+02 0.15798040816E+02 0.15309655632E+02
 0.15309655650E+02 0.15798040850E+02 0.16429977482E+02 0.16750757638E+02 0.16475514621E+02
 0.15610955910E+02 0.14372794017E+02 0.13011959141E+02 0.11693160212E+02 0.10522915734E+02
 0.95757979362E+01 0.88687499442E+01 0.83982644563E+01 0.81622603317E+01 0.81622603604E+01
 0.83982645260E+01 0.88687500160E+01 0.95757979770E+01 0.10522915743E+02 0.11693160210E+02
 0.13011959152E+02 0.14372794060E+02 0.15610955969E+02 0.15950973005E+02 0.16280324848E+02
 0.16128659618E+02 0.15798040893E+02 0.15636729086E+02 0.15798040850E+02 0.16128659549E+02
 0.16280324779E+02 0.15950972941E+02 0.15063735277E+02 0.13768353617E+02 0.12306972372E+02
 0.10873265279E+02 0.95757978821E+01 0.85034990795E+01 0.76871903306E+01 0.71192777691E+01
 0.67846698620E+01 0.66740222889E+01 0.67846698818E+01 0.71192778131E+01 0.76871904010E+01
 0.85034991720E+01 0.95757979770E+01 0.10873265362E+02 0.12306972439E+02 0.13768353669E+02
 0.15063735326E+02 0.15746479934E+02 0.16280324862E+02 0.16429977550E+02 0.16413826835E+02
 0.16413826808E+02 0.16429977482E+02 0.16280324779E+02 0.15746479860E+02 0.14739342568E+02
 0.13355160077E+02 0.11800155105E+02 0.10267490278E+02 0.88687499376E+01 0.76871903641E+01
 0.67669085865E+01 0.61035004852E+01 0.56761491642E+01 0.54669231035E+01 0.54669230777E+01
 0.56761491025E+01 0.61035004281E+01 0.67669085703E+01 0.76871904010E+01 0.88687500160E+01
 0.10267490367E+02 0.11800155179E+02 0.13355160136E+02 0.14739342628E+02 0.15950972961E+02
 0.16750757653E+02 0.17167786938E+02 0.17291283897E+02 0.17167786926E+02 0.16750757638E+02
 0.15950972941E+02 0.14739342568E+02 0.13206724569E+02 0.11531765146E+02 0.98925571497E+01
 0.83982645096E+01 0.71192778572E+01 0.61035005445E+01 0.53499565333E+01 0.48357290969E+01
 0.45371610973E+01 0.44392551673E+01 0.45371609993E+01 0.48357289380E+01 0.53499563709E+01
 0.61035004281E+01 0.71192778131E+01 0.83982645260E+01 0.98925572030E+01 0.11531765208E+02
 0.13206724623E+02 0.14739342604E+02 0.16475514590E+02 0.17459372854E+02 0.17957044761E+02
 0.17957044776E+02 0.17459372888E+02 0.16475514621E+02 0.15063735277E+02 0.13355160077E+02
 0.11531765146E+02 0.97651045288E+01 0.81622603962E+01 0.67846699864E+01 0.56761492622E+01
 0.48357291200E+01 0.42387968343E+01 0.38575573576E+01 0.36718355926E+01 0.36718355512E+01
 0.38575572438E+01 0.42387966682E+01 0.48357289380E+01 0.56761491025E+01 0.67846698818E+01
 0.81622603604E+01 0.97651045529E+01 0.11531765190E+02 0.13355160110E+02 0.15063735281E+02
 0.17115457935E+02 0.18097500426E+02 0.18438221551E+02 0.18097500421E+02 0.17115457908E+02
 0.15610955910E+02 0.13768353617E+02 0.11800155105E+02 0.98925571497E+01 0.81622603962E+01
 0.66740224101E+01 0.54669232188E+01 0.45371611062E+01 0.38575572939E+01 0.33966143522E+01
 0.31295959130E+01 0.30421079787E+01 0.31295959256E+01 0.33966143500E+01 0.38575572438E+01
 0.45371609993E+01 0.54669230777E+01 0.66740222889E+01 0.81622603317E+01 0.98925571593E+01
 0.11800155168E+02 0.13768353690E+02 0.15610955970E+02 0.17680593383E+02 0.18459323217E+02
 0.18459323171E+02 0.17680593252E+02 0.16246818467E+02 0.14372794017E+02 0.12306972372E+02
 0.10267490278E+02 0.83982645096E+01 0.67846699864E+01 0.54669232188E+01 0.44392551950E+01
 0.36718354626E+01 0.31295957552E+01 0.27835302677E+01 0.26148731045E+01 0.26148731716E+01
 0.27835304289E+01 0.31295959256E+01 0.36718355512E+01 0.44392551673E+01 0.54669231035E+01
 0.67846698620E+01 0.83982644563E+01 0.10267490338E+02 0.12306972533E+02 0.14372794215E+02
 0.16246818652E+02 0.18082507841E+02 0.18509884155E+02 0.18082507694E+02 0.16876941933E+02
 0.15097630488E+02 0.13011959141E+02 0.10873265279E+02 0.88687499376E+01 0.71192778572E+01
 0.56761492622E+01 0.45371611062E+01 0.36718354626E+01 0.30421077324E+01 0.26148729023E+01
 0.23670367516E+01 0.22857648540E+01 0.23670369262E+01 0.26148731716E+01 0.30421079787E+01
 0.36718355926E+01 0.45371610973E+01 0.56761491642E+01 0.71192777691E+01 0.88687499442E+01
 0.10873265410E+02 0.13011959393E+02 0.15097630790E+02 0.16876942190E+02 0.18321264806E+02
 0.18321264747E+02 0.17460278500E+02 0.15893746049E+02 0.13878599063E+02 0.11693160212E+02
 0.95757978821E+01 0.76871903641E+01 0.61035005445E+01 0.48357291200E+01 0.38575572939E+01
 0.31295957552E+01 0.26148729023E+01 0.22857646828E+01 0.21251641735E+01 0.21251642395E+01
 0.22857648540E+01 0.26148731045E+01 0.31295959130E+01 0.38575573576E+01 0.48357290969E+01
 0.61035004852E+01 0.76871903306E+01 0.95757979362E+01 0.11693160360E+02 0.13878599269E+02
 0.15893746265E+02 0.17460278663E+02 0.18406958289E+02 0.17961869314E+02 0.16708166936E+02
 0.14863091346E+02 0.12710619844E+02 0.10522915734E+02 0.85034990795E+01 0.67669085865E+01
 0.53499565333E+01 0.42387968343E+01 0.33966143522E+01 0.27835302677E+01 0.23670367516E+01
 0.21251641735E+01 0.20458072279E+01 0.21251641735E+01 0.23670367516E+01 0.27835302677E+01
 0.33966143522E+01 0.42387968343E+01 0.53499565333E+01 0.67669085865E+01 0.85034990795E+01
 0.10522915734E+02 0.12710619844E+02 0.14863091346E+02 0.16708166936E+02 0.17961869314E+02
 0.18321264806E+02 0.17460278663E+02 0.15893746265E+02 0.13878599269E+02 0.11693160360E+02
 0.95757979362E+01 0.76871903306E+01 0.61035004852E+01 0.48357290969E+01 0.38575573576E+01
 0.31295959130E+01 0.26148731045E+01 0.22857648540E+01 0.21251642395E+01 0.21251641735E+01
 0.22857646828E+01 0.26148729023E+01 0.31295957552E+01 0.38575572939E+01 0.48357291200E+01
 0.61035005445E+01 0.76871903641E+01 0.95757978821E+01 0.11693160212E+02 0.13878599063E+02
 0.15893746049E+02 0.17460278500E+02 0.18321264747E+02 0.18082507841E+02 0.16876942190E+02
 0.15097630790E+02 0.13011959393E+02 0.10873265410E+02 0.88687499442E+01 0.71192777691E+01
 0.56761491642E+01 0.45371610973E+01 0.36718355926E+01 0.30421079787E+01 0.26148731716E+01
 0.23670369262E+01 0.22857648540E+01 0.23670367516E+01 0.26148729023E+01 0.30421077324E+01
 0.36718354626E+01 0.45371611062E+01 0.56761492622E+01 0.71192778572E+01 0.88687499376E+01
 0.10873265279E+02 0.13011959141E+02 0.15097630488E+02 0.16876941933E+02 0.18082507694E+02
 0.18509884155E+02 0.17680593383E+02 0.16246818652E+02 0.14372794215E+02 0.12306972533E+02
 0.10267490338E+02 0.83982644563E+01 0.67846698620E+01 0.54669231035E+01 0.44392551673E+01
 0.36718355512E+01 0.31295959256E+01 0.27835304289E+01 0.26148731716E+01 0.26148731045E+01
 0.27835302677E+01 0.31295957552E+01 0.36718354626E+01 0.44392551950E+01 0.54669232188E+01
 0.67846699864E+01 0.83982645096E+01 0.10267490278E+02 0.12306972372E+02 0.14372794017E+02
 0.16246818467E+02 0.17680593252E+02 0.18459323171E+02 0.18459323217E+02 0.17115457935E+02
 0.15610955970E+02 0.13768353690E+02 0.11800155168E+02 0.98925571593E+01 0.81622603317E+01
 0.66740222889E+01 0.54669230777E+01 0.45371609993E+01 0.38575572438E+01 0.33966143500E+01
 0.31295959256E+01 0.30421079787E+01 0.31295959130E+01 0.33966143522E+01 0.38575572939E+01
 0.45371611062E+01 0.54669232188E+01 0.66740224101E+01 0.81622603962E+01 0.98925571497E+01
 0.11800155105E+02 0.13768353617E+02 0.15610955910E+02 0.17115457908E+02 0.18097500421E+02
 0.18438221551E+02 0.18097500426E+02 0.16475514590E+02 0.15063735281E+02 0.13355160110E+02
 0.11531765190E+02 0.97651045529E+01 0.81622603604E+01 0.67846698818E+01 0.56761491025E+01
 0.48357289380E+01 0.42387966682E+01 0.38575572438E+01 0.36718355512E+01 0.36718355926E+01
 0.38575573576E+01 0.42387968343E+01 0.48357291200E+01 0.56761492622E+01 0.67846699864E+01
 0.81622603962E+01 0.97651045288E+01 0.11531765146E+02 0.13355160077E+02 0.15063735277E+02
 0.16475514621E+02 0.17459372888E+02 0.17957044776E+02 0.17957044761E+02 0.17459372854E+02
 0.15950972961E+02 0.14739342604E+02 0.13206724623E+02 0.11531765208E+02 0.98925572030E+01
 0.83982645260E+01 0.71192778131E+01 0.61035004281E+01 0.53499563709E+01 0.48357289380E+01
 0.45371609993E+01 0.44392551673E+01 0.45371610973E+01 0.48357290969E+01 0.53499565333E+01
 0.61035005445E+01 0.71192778572E+01 0.83982645096E+01 0.98925571497E+01 0.11531765146E+02
 0.13206724569E+02 0.14739342568E+02 0.15950972941E+02 0.16750757638E+02 0.17167786926E+02
 0.17291283897E+02 0.17167786938E+02 0.16750757653E+02 0.15746479934E+02 0.14739342628E+02
 0.13355160136E+02 0.11800155179E+02 0.10267490367E+02 0.88687500160E+01 0.76871904010E+01
 0.67669085703E+01 0.61035004281E+01 0.56761491025E+01 0.54669230777E+01 0.54669231035E+01
 0.56761491642E+01 0.61035004852E+01 0.67669085865E+01 0.76871903641E+01 0.88687499376E+01
 0.10267490278E+02 0.11800155105E+02 0.13355160077E+02 0.14739342568E+02 0.15746479860E+02
 0.16280324779E+02 0.16429977482E+02 0.16413826808E+02 0.16413826835E+02 0.16429977550E+02
 0.16280324862E+02 0.15950973005E+02 0.15063735326E+02 0.13768353669E+02 0.12306972439E+02
 0.10873265362E+02 0.95757979770E+01 0.85034991720E+01 0.76871904010E+01 0.71192778131E+01
 0.67846698818E+01 0.66740222889E+01 0.67846698620E+01 0.71192777691E+01 0.76871903306E+01
 0.85034990795E+01 0.95757978821E+01 0.10873265279E+02 0.12306972372E+02 0.13768353617E+02
 0.15063735277E+02 0.15950972941E+02 0.16280324779E+02 0.16128659549E+02 0.15798040850E+02
 0.15636729086E+02 0.15798040893E+02 0.16128659618E+02 0.16280324848E+02 0.16475514670E+02
 0.15610955969E+02 0.14372794060E+02 0.13011959152E+02 0.11693160210E+02 0.10522915743E+02
 0.95757979770E+01 0.88687500160E+01 0.83982645260E+01 0.81622603604E+01 0.81622603317E+01
 0.83982644563E+01 0.88687499442E+01 0.95757979362E+01 0.10522915734E+02 0.11693160212E+02
 0.13011959141E+02 0.14372794017E+02 0.15610955910E+02 0.16475514621E+02 0.16750757638E+02
 0.16429977482E+02 0.15798040850E+02 0.15309655650E+02 0.15309655632E+02 0.15798040816E+02
 0.16429977454E+02 0.16750757647E+02 0.17115458048E+02 0.16246818586E+02 0.15097630496E+02
 0.13878598940E+02 0.12710619654E+02 0.11693160210E+02 0.10873265362E+02 0.10267490367E+02
 0.98925572030E+01 0.97651045529E+01 0.98925571593E+01 0.10267490338E+02 0.10873265410E+02
 0.11693160360E+02 0.12710619844E+02 0.13878599063E+02 0.15097630488E+02 0.16246818467E+02
 0.17115457908E+02 0.17459372888E+02 0.17167786926E+02 0.16413826808E+02 0.15636729086E+02
 0.15309655632E+02 0.15636728971E+02 0.16413826663E+02 0.17167786857E+02 0.17459372945E+02
 0.17680593531E+02 0.16876942081E+02 0.15893745961E+02 0.14863091064E+02 0.13878598940E+02
 0.13011959152E+02 0.12306972439E+02 0.11800155179E+02 0.11531765208E+02 0.11531765190E+02
 0.11800155168E+02 0.12306972533E+02 0.13011959393E+02 0.13878599269E+02 0.14863091346E+02
 0.15893746049E+02 0.16876941933E+02 0.17680593252E+02 0.18097500421E+02 0.17957044776E+02
 0.17291283897E+02 0.16413826835E+02 0.15798040893E+02 0.15798040816E+02 0.16413826663E+02
 0.17291283780E+02 0.17957044841E+02 0.18097500659E+02 0.18082508028E+02 0.17460278602E+02
 0.16708166786E+02 0.15893745961E+02 0.15097630496E+02 0.14372794060E+02 0.13768353669E+02
 0.13355160136E+02 0.13206724623E+02 0.13355160110E+02 0.13768353690E+02 0.14372794215E+02
 0.15097630790E+02 0.15893746265E+02 0.16708166936E+02 0.17460278500E+02 0.18082507694E+02
 0.18459323171E+02 0.18438221551E+02 0.17957044761E+02 0.17167786938E+02 0.16429977550E+02
 0.16128659618E+02 0.16429977454E+02 0.17167786857E+02 0.17957044841E+02 0.18438221839E+02
 0.18459323568E+02 0.18321265007E+02 0.17961869405E+02 0.17460278602E+02 0.16876942081E+02
 0.16246818586E+02 0.15610955969E+02 0.15063735326E+02 0.14739342628E+02 0.14739342604E+02
 0.15063735281E+02 0.15610955970E+02 0.16246818652E+02 0.16876942190E+02 0.17460278663E+02
 0.17961869314E+02 0.18321264747E+02 0.18509884155E+02 0.18459323217E+02 0.18097500426E+02
 0.17459372854E+02 0.16750757653E+02 0.16280324862E+02 0.16280324848E+02 0.16750757647E+02
 0.17459372945E+02 0.18097500659E+02 0.18459323568E+02 0.18509884527E+02 0.18321265007E+02
 0.18509884527E+02 0.18459323568E+02 0.18097500659E+02 0.17459372945E+02 0.16750757647E+02
 0.16280324848E+02 0.16280324862E+02 0.16750757653E+02 0.17459372854E+02 0.18097500426E+02
 0.18459323217E+02 0.18509884155E+02 0.18321264747E+02 0.17961869314E+02 0.17460278663E+02
 0.16876942190E+02 0.16246818652E+02 0.15610955970E+02 0.15063735281E+02 0.14739342604E+02
 0.14739342628E+02 0.15063735326E+02 0.15610955969E+02 0.16246818586E+02 0.16876942081E+02
 0.17460278602E+02 0.17961869405E+02 0.18509884527E+02 0.18874100371E+02 0.18812482096E+02
 0.18262156755E+02 0.17389781925E+02 0.16582846577E+02 0.16254529877E+02 0.16582846764E+02
 0.17389782136E+02 0.18262156786E+02 0.18812481852E+02 0.18874099946E+02 0.18509884126E+02
 0.17881432040E+02 0.17112961152E+02 0.16273870129E+02 0.15450198259E+02 0.14697986171E+02
 0.14069125262E+02 0.13638461510E+02 0.13483608462E+02 0.13638461534E+02 0.14069125226E+02
 0.14697985995E+02 0.15450197937E+02 0.16273869809E+02 0.17112961025E+02 0.17881432202E+02
 0.18459323568E+02 0.18812482096E+02 0.18531043330E+02 0.17664532778E+02 0.16584011819E+02
 0.15839325942E+02 0.15839326131E+02 0.16584012258E+02 0.17664533196E+02 0.18531043472E+02
 0.18812481906E+02 0.18459323226E+02 0.17657974272E+02 0.16643261551E+02 0.15567052794E+02
 0.14526147797E+02 0.13604386386E+02 0.12852678218E+02 0.12311266705E+02 0.12024191197E+02
 0.12024191226E+02 0.12311266729E+02 0.12852678109E+02 0.13604386081E+02 0.14526147387E+02
 0.15567052471E+02 0.16643261496E+02 0.17657974509E+02 0.18097500659E+02 0.18262156755E+02
 0.17664532778E+02 0.16544844950E+02 0.15465289610E+02 0.15020461784E+02 0.15465289997E+02
 0.16544845509E+02 0.17664533227E+02 0.18262156915E+02 0.18097500558E+02 0.17282688741E+02
 0.16104776984E+02 0.14821915159E+02 0.13578001947E+02 0.12480062873E+02 0.11588381643E+02
 0.10928097282E+02 0.10519428460E+02 0.10380517794E+02 0.10519428542E+02 0.10928097338E+02
 0.11588381558E+02 0.12480062623E+02 0.13578001643E+02 0.14821914974E+02 0.16104777013E+02
 0.17282688904E+02 0.17459372945E+02 0.17389781925E+02 0.16584011819E+02 0.15465289610E+02
 0.14669299810E+02 0.14669299961E+02 0.15465289980E+02 0.16584012231E+02 0.17389782217E+02
 0.17459373051E+02 0.16755065791E+02 0.15529396382E+02 0.14102324288E+02 0.12694321873E+02
 0.11425623485E+02 0.10388120530E+02 0.96097652980E+01 0.90906525097E+01 0.88300011775E+01
 0.88300012425E+01 0.90906526543E+01 0.96097654170E+01 0.10388120539E+02 0.11425623388E+02
 0.12694321753E+02 0.14102324230E+02 0.15529396400E+02 0.16755065809E+02 0.16750757647E+02
 0.16582846577E+02 0.15839325942E+02 0.15020461784E+02 0.14669299961E+02 0.15020461881E+02
 0.15839326092E+02 0.16582846729E+02 0.16750757755E+02 0.16157119224E+02 0.14953460334E+02
 0.13452394278E+02 0.11926762461E+02 0.10524299728E+02 0.93467993136E+01 0.84446639766E+01
 0.78161277432E+01 0.74459953606E+01 0.73236848027E+01 0.74459954535E+01 0.78161278880E+01
 0.84446641143E+01 0.93467994024E+01 0.10524299761E+02 0.11926762455E+02 0.13452394261E+02
 0.14953460304E+02 0.16157119166E+02 0.16280324848E+02 0.16254529877E+02 0.15839326131E+02
 0.15465289997E+02 0.15465289980E+02 0.15839326092E+02 0.16254529842E+02 0.16280324840E+02
 0.15666607010E+02 0.14460264220E+02 0.12914120788E+02 0.11304774947E+02 0.98061377002E+01
 0.85140705958E+01 0.74973631843E+01 0.67628327034E+01 0.62903879044E+01 0.60595906147E+01
 0.60595906220E+01 0.62903879306E+01 0.67628327536E+01 0.74973632570E+01 0.85140706759E+01
 0.98061377629E+01 0.11304774974E+02 0.12914120776E+02 0.14460264189E+02 0.15666606989E+02
 0.16280324862E+02 0.16582846764E+02 0.16584012258E+02 0.16544845509E+02 0.16584012231E+02
 0.16582846729E+02 0.16280324840E+02 0.15475294616E+02 0.14168617365E+02 0.12548004749E+02
 0.10858829577E+02 0.92788096599E+01 0.78956750007E+01 0.67802146838E+01 0.59490862710E+01
 0.53827106698E+01 0.50549492463E+01 0.49477264610E+01 0.50549491714E+01 0.53827105592E+01
 0.59490861805E+01 0.67802146495E+01 0.78956750200E+01 0.92788097021E+01 0.10858829605E+02
 0.12548004749E+02 0.14168617350E+02 0.15475294607E+02 0.16750757653E+02 0.17389782136E+02
 0.17664533196E+02 0.17664533227E+02 0.17389782217E+02 0.16750757755E+02 0.15666607010E+02
 0.14168617365E+02 0.12416823257E+02 0.10623130378E+02 0.89525204645E+01 0.74850389771E+01
 0.62813782303E+01 0.53625751159E+01 0.47102970988E+01 0.42952469667E+01 0.40937809861E+01
 0.40937809278E+01 0.42952468112E+01 0.47102969041E+01 0.53625749419E+01 0.62813781242E+01
 0.74850389471E+01 0.89525204872E+01 0.10623130409E+02 0.12416823258E+02 0.14168617319E+02
 0.15666606918E+02 0.17459372854E+02 0.18262156786E+02 0.18531043472E+02 0.18262156915E+02
 0.17459373051E+02 0.16157119224E+02 0.14460264220E+02 0.12548004749E+02 0.10623130378E+02
 0.88415456918E+01 0.72792155890E+01 0.59869820390E+01 0.49835408827E+01 0.42498072007E+01
 0.37539420306E+01 0.34679255837E+01 0.33744649757E+01 0.34679255208E+01 0.37539419123E+01
 0.42498070472E+01 0.49835407306E+01 0.59869819302E+01 0.72792155474E+01 0.88415457111E+01
 0.10623130410E+02 0.12548004730E+02 0.14460264118E+02 0.16157119038E+02 0.18097500426E+02
 0.18812481852E+02 0.18812481906E+02 0.18097500558E+02 0.16755065791E+02 0.14953460334E+02
 0.12914120788E+02 0.10858829577E+02 0.89525204645E+01 0.72792155890E+01 0.58895041488E+01
 0.47973665735E+01 0.39812122478E+01 0.34064625821E+01 0.30412973516E+01 0.28639464440E+01
 0.28639464706E+01 0.30412974109E+01 0.34064626192E+01 0.39812122273E+01 0.47973664971E+01
 0.58895040663E+01 0.72792155518E+01 0.89525204859E+01 0.10858829626E+02 0.12914120792E+02
 0.14953460262E+02 0.16755065658E+02 0.18459323217E+02 0.18874099946E+02 0.18459323226E+02
 0.17282688741E+02 0.15529396382E+02 0.13452394278E+02 0.11304774947E+02 0.92788096599E+01
 0.74850389771E+01 0.59869820390E+01 0.47973665735E+01 0.38928764156E+01 0.32364861757E+01
 0.27930029320E+01 0.25366611857E+01 0.24527648275E+01 0.25366613367E+01 0.27930031542E+01
 0.32364863610E+01 0.38928764903E+01 0.47973665430E+01 0.59869819669E+01 0.74850389435E+01
 0.92788096963E+01 0.11304775046E+02 0.13452394375E+02 0.15529396432E+02 0.17282688748E+02
 0.18509884155E+02 0.18509884126E+02 0.17657974272E+02 0.16104776984E+02 0.14102324288E+02
 0.11926762461E+02 0.98061377002E+01 0.78956750007E+01 0.62813782303E+01 0.49835408827E+01
 0.39812122478E+01 0.32364861757E+01 0.27114346943E+01 0.23766702265E+01 0.22136175277E+01
 0.22136176210E+01 0.23766704621E+01 0.27114349652E+01 0.32364863721E+01 0.39812123158E+01
 0.49835408440E+01 0.62813781575E+01 0.78956749802E+01 0.98061377592E+01 0.11926762589E+02
 0.14102324452E+02 0.16104777126E+02 0.17657974362E+02 0.18321264747E+02 0.17881432040E+02
 0.16643261551E+02 0.14821915159E+02 0.12694321873E+02 0.10524299728E+02 0.85140705958E+01
 0.67802146838E+01 0.53625751159E+01 0.42498072007E+01 0.34064625821E+01 0.27930029320E+01
 0.23766702265E+01 0.21350912172E+01 0.20558658512E+01 0.21350913169E+01 0.23766703804E+01
 0.27930030730E+01 0.34064626590E+01 0.42498071980E+01 0.53625750650E+01 0.67802146258E+01
 0.85140705747E+01 0.10524299762E+02 0.12694321939E+02 0.14821915233E+02 0.16643261617E+02
 0.17881432077E+02 0.17961869314E+02 0.17112961152E+02 0.15567052794E+02 0.13578001947E+02
 0.11425623485E+02 0.93467993136E+01 0.74973631843E+01 0.59490862710E+01 0.47102970988E+01
 0.37539420306E+01 0.30412973516E+01 0.25366611857E+01 0.22136175277E+01 0.20558658512E+01
 0.20558658350E+01 0.22136174848E+01 0.25366611293E+01 0.30412972986E+01 0.37539419930E+01
 0.47102970777E+01 0.59490862581E+01 0.74973631566E+01 0.93467992543E+01 0.11425623390E+02
 0.13578001826E+02 0.15567052668E+02 0.17112961056E+02 0.17961869280E+02 0.17460278663E+02
 0.16273870129E+02 0.14526147797E+02 0.12480062873E+02 0.10388120530E+02 0.84446639766E+01
 0.67628327034E+01 0.53827106698E+01 0.42952469667E+01 0.34679255837E+01 0.28639464440E+01
 0.24527648275E+01 0.22136176210E+01 0.21350913169E+01 0.22136174848E+01 0.24527646107E+01
 0.28639462323E+01 0.34679254488E+01 0.42952469388E+01 0.53827107136E+01 0.67628327554E+01
 0.84446639596E+01 0.10388120388E+02 0.12480062617E+02 0.14526147488E+02 0.16273869849E+02
 0.17460278497E+02 0.17881432077E+02 0.16876942190E+02 0.15450198259E+02 0.13604386386E+02
 0.11588381643E+02 0.96097652980E+01 0.78161277432E+01 0.62903879044E+01 0.50549492463E+01
 0.40937809861E+01 0.33744649757E+01 0.28639464706E+01 0.25366613367E+01 0.23766704621E+01
 0.23766703804E+01 0.25366611293E+01 0.28639462323E+01 0.33744648094E+01 0.40937809523E+01
 0.50549493372E+01 0.62903880444E+01 0.78161278270E+01 0.96097652525E+01 0.11588381445E+02
 0.13604386064E+02 0.15450197911E+02 0.16876941928E+02 0.17657974263E+02 0.17657974362E+02
 0.16246818652E+02 0.14697986171E+02 0.12852678218E+02 0.10928097282E+02 0.90906525097E+01
 0.74459953606E+01 0.60595906147E+01 0.49477264610E+01 0.40937809278E+01 0.34679255208E+01
 0.30412974109E+01 0.27930031542E+01 0.27114349652E+01 0.27930030730E+01 0.30412972986E+01
 0.34679254488E+01 0.40937809523E+01 0.49477265841E+01 0.60595907947E+01 0.74459955179E+01
 0.90906525712E+01 0.10928097209E+02 0.12852678033E+02 0.14697985938E+02 0.16246818435E+02
 0.17282688618E+02 0.17647262969E+02 0.17282688748E+02 0.15610955970E+02 0.14069125262E+02
 0.12311266705E+02 0.10519428460E+02 0.88300011775E+01 0.73236848027E+01 0.60595906220E+01
 0.50549491714E+01 0.42952468112E+01 0.37539419123E+01 0.34064626192E+01 0.32364863610E+01
 0.32364863721E+01 0.34064626590E+01 0.37539419930E+01 0.42952469388E+01 0.50549493372E+01
 0.60595907947E+01 0.73236849425E+01 0.88300012597E+01 0.10519428466E+02 0.12311266644E+02
 0.14069125161E+02 0.15610955859E+02 0.16755065579E+02 0.17363153997E+02 0.17363154024E+02
 0.16755065658E+02 0.15063735281E+02 0.13638461510E+02 0.12024191197E+02 0.10380517794E+02
 0.88300012425E+01 0.74459954535E+01 0.62903879306E+01 0.53827105592E+01 0.47102969041E+01
 0.42498070472E+01 0.39812122273E+01 0.38928764903E+01 0.39812123158E+01 0.42498071980E+01
 0.47102970777E+01 0.53827107136E+01 0.62903880444E+01 0.74459955179E+01 0.88300012597E+01
 0.10380517774E+02 0.12024191159E+02 0.13638461460E+02 0.15063735228E+02 0.16157118998E+02
 0.16832476496E+02 0.17059114485E+02 0.16832476520E+02 0.16157119038E+02 0.14739342604E+02
 0.13483608462E+02 0.12024191226E+02 0.10519428542E+02 0.90906526543E+01 0.78161278880E+01
 0.67628327536E+01 0.59490861805E+01 0.53625749419E+01 0.49835407306E+01 0.47973664971E+01
 0.47973665430E+01 0.49835408440E+01 0.53625750650E+01 0.59490862581E+01 0.67628327554E+01
 0.78161278270E+01 0.90906525712E+01 0.10519428466E+02 0.12024191159E+02 0.13483608393E+02
 0.14739342523E+02 0.15666606827E+02 0.16232014886E+02 0.16484892524E+02 0.16484892553E+02
 0.16232014960E+02 0.15666606918E+02 0.14739342628E+02 0.13638461534E+02 0.12311266729E+02
 0.10928097338E+02 0.96097654170E+01 0.84446641143E+01 0.74973632570E+01 0.67802146495E+01
 0.62813781242E+01 0.59869819302E+01 0.58895040663E+01 0.59869819669E+01 0.62813781575E+01
 0.67802146258E+01 0.74973631566E+01 0.84446639596E+01 0.96097652525E+01 0.10928097209E+02
 0.12311266644E+02 0.13638461460E+02 0.14739342523E+02 0.15475294457E+02 0.15830303838E+02
 0.15926827426E+02 0.15933122957E+02 0.15926827521E+02 0.15830303990E+02 0.15475294607E+02
 0.15063735326E+02 0.14069125226E+02 0.12852678109E+02 0.11588381558E+02 0.10388120539E+02
 0.93467994024E+01 0.85140706759E+01 0.78956750200E+01 0.74850389471E+01 0.72792155474E+01
 0.72792155518E+01 0.74850389435E+01 0.78956749802E+01 0.85140705747E+01 0.93467992543E+01
 0.10388120388E+02 0.11588381445E+02 0.12852678033E+02 0.14069125161E+02 0.15063735228E+02
 0.15666606827E+02 0.15830303838E+02 0.15695867445E+02 0.15525252030E+02 0.15525252094E+02
 0.15695867607E+02 0.15830304029E+02 0.15666606989E+02 0.15610955969E+02 0.14697985995E+02
 0.13604386081E+02 0.12480062623E+02 0.11425623388E+02 0.10524299761E+02 0.98061377629E+01
 0.92788097021E+01 0.89525204872E+01 0.88415457111E+01 0.89525204859E+01 0.92788096963E+01
 0.98061377592E+01 0.10524299762E+02 0.11425623390E+02 0.12480062617E+02 0.13604386064E+02
 0.14697985938E+02 0.15610955859E+02 0.16157118998E+02 0.16232014886E+02 0.15926827426E+02
 0.15525252030E+02 0.15345107622E+02 0.15525252136E+02 0.15926827602E+02 0.16232015085E+02
 0.16157119166E+02 0.16246818586E+02 0.15450197937E+02 0.14526147387E+02 0.13578001643E+02
 0.12694321753E+02 0.11926762455E+02 0.11304774974E+02 0.10858829605E+02 0.10623130409E+02
 0.10623130410E+02 0.10858829626E+02 0.11304775046E+02 0.11926762589E+02 0.12694321939E+02
 0.13578001826E+02 0.14526147488E+02 0.15450197911E+02 0.16246818435E+02 0.16755065579E+02
 0.16832476496E+02 0.16484892524E+02 0.15933122957E+02 0.15525252094E+02 0.15525252136E+02
 0.15933123081E+02 0.16484892727E+02 0.16832476742E+02 0.16755065809E+02 0.16876942081E+02
 0.16273869809E+02 0.15567052471E+02 0.14821914974E+02 0.14102324230E+02 0.13452394261E+02
 0.12914120776E+02 0.12548004749E+02 0.12416823258E+02 0.12548004730E+02 0.12914120792E+02
 0.13452394375E+02 0.14102324452E+02 0.14821915233E+02 0.15567052668E+02 0.16273869849E+02
 0.16876941928E+02 0.17282688618E+02 0.17363153997E+02 0.17059114485E+02 0.16484892553E+02
 0.15926827521E+02 0.15695867607E+02 0.15926827602E+02 0.16484892727E+02 0.17059114758E+02
 0.17363154319E+02 0.17282688904E+02 0.17460278602E+02 0.17112961025E+02 0.16643261496E+02
 0.16104777013E+02 0.15529396400E+02 0.14953460304E+02 0.14460264189E+02 0.14168617350E+02
 0.14168617319E+02 0.14460264118E+02 0.14953460262E+02 0.15529396432E+02 0.16104777126E+02
 0.16643261617E+02 0.17112961056E+02 0.17460278497E+02 0.17657974263E+02 0.17647262969E+02
 0.17363154024E+02 0.16832476520E+02 0.16232014960E+02 0.15830303990E+02 0.15830304029E+02
 0.16232015085E+02 0.16832476742E+02 0.17363154319E+02 0.17647263280E+02 0.17657974509E+02
 0.17961869405E+02 0.17881432202E+02 0.17657974509E+02 0.17282688904E+02 0.16755065809E+02
 0.16157119166E+02 0.15666606989E+02 0.15475294607E+02 0.15666606918E+02 0.16157119038E+02
 0.16755065658E+02 0.17282688748E+02 0.17657974362E+02 0.17881432077E+02 0.17961869280E+02
 0.17881432077E+02 0.17657974362E+02 0.17282688748E+02 0.16755065658E+02 0.16157119038E+02
 0.15666606918E+02 0.15475294607E+02 0.15666606989E+02 0.16157119166E+02 0.16755065809E+02
 0.17282688904E+02 0.17657974509E+02 0.17881432202E+02 0.18082508028E+02 0.18459323568E+02
 0.18438221839E+02 0.17957044841E+02 0.17167786857E+02 0.16429977454E+02 0.16128659618E+02
 0.16429977550E+02 0.17167786938E+02 0.17957044761E+02 0.18438221551E+02 0.18459323171E+02
 0.18082507694E+02 0.17460278500E+02 0.16708166936E+02 0.15893746265E+02 0.15097630790E+02
 0.14372794215E+02 0.13768353690E+02 0.13355160110E+02 0.13206724623E+02 0.13355160136E+02
 0.13768353669E+02 0.14372794060E+02 0.15097630496E+02 0.15893745961E+02 0.16708166786E+02
 0.17460278602E+02 0.18459323568E+02 0.18812482096E+02 0.18531043330E+02 0.17664532778E+02
 0.16584011819E+02 0.15839325942E+02 0.15839326131E+02 0.16584012258E+02 0.17664533196E+02
 0.18531043472E+02 0.18812481906E+02 0.18459323226E+02 0.17657974272E+02 0.16643261551E+02
 0.15567052794E+02 0.14526147797E+02 0.13604386386E+02 0.12852678218E+02 0.12311266705E+02
 0.12024191197E+02 0.12024191226E+02 0.12311266729E+02 0.12852678109E+02 0.13604386081E+02
 0.14526147387E+02 0.15567052471E+02 0.16643261496E+02 0.17657974509E+02 0.18438221839E+02
 0.18531043330E+02 0.17813726444E+02 0.16552500191E+02 0.15356499506E+02 0.14866437261E+02