   2   2   0   0
  0.4204385E+01  0.2282527E-09  0.2282527E-09  0.2282527E-09  0.5000000E-15
  1.000000000000000E-004
  CAR 
 unknown system                          
     38.85431108    -13.76089459  301     14.65679722      1.00000000
    -13.761  0.0000E+00  0.0000E+00
    -13.586  0.0000E+00  0.0000E+00
    -13.410  0.0000E+00  0.0000E+00
    -13.235  0.0000E+00  0.0000E+00
    -13.059  0.0000E+00  0.0000E+00
    -12.884  0.0000E+00  0.0000E+00
    -12.709  0.0000E+00  0.0000E+00
    -12.533  0.0000E+00  0.0000E+00
    -12.358  0.0000E+00  0.0000E+00
    -12.182  0.0000E+00  0.0000E+00
    -12.007  0.0000E+00  0.0000E+00
    -11.832  0.0000E+00  0.0000E+00
    -11.656  0.0000E+00  0.0000E+00
    -11.481  0.0000E+00  0.0000E+00
    -11.306  0.3347E-02  0.7114E-04
    -11.130  0.4335E-01  0.3740E-02
    -10.955  0.4630E-01  0.1095E-01
    -10.779  0.6074E-01  0.2031E-01
    -10.604  0.7223E-01  0.3214E-01
    -10.429  0.7641E-01  0.4510E-01
    -10.253  0.8471E-01  0.5923E-01
    -10.078  0.9332E-01  0.7484E-01
     -9.902  0.1023E+00  0.9198E-01
     -9.727  0.1062E+00  0.1102E+00
     -9.552  0.1112E+00  0.1293E+00
     -9.376  0.1162E+00  0.1492E+00
     -9.201  0.1222E+00  0.1701E+00
     -9.026  0.1286E+00  0.1921E+00
     -8.850  0.1349E+00  0.2152E+00
     -8.675  0.1388E+00  0.2392E+00
     -8.499  0.1426E+00  0.2639E+00
     -8.324  0.1469E+00  0.2893E+00
     -8.149  0.1514E+00  0.3154E+00
     -7.973  0.1559E+00  0.3424E+00
     -7.798  0.1608E+00  0.3701E+00
     -7.622  0.1659E+00  0.3988E+00
     -7.447  0.1710E+00  0.4283E+00
     -7.272  0.1743E+00  0.4586E+00
     -7.096  0.1778E+00  0.4894E+00
     -6.921  0.1813E+00  0.5209E+00
     -6.746  0.1854E+00  0.5531E+00
     -6.570  0.1895E+00  0.5859E+00
     -6.395  0.1936E+00  0.6195E+00
     -6.219  0.1978E+00  0.6539E+00
     -6.044  0.2022E+00  0.6889E+00
     -5.869  0.2067E+00  0.7248E+00
     -5.693  0.2107E+00  0.7614E+00
     -5.518  0.2144E+00  0.7987E+00
     -5.342  0.2185E+00  0.8366E+00
     -5.167  0.2227E+00  0.8753E+00
     -4.992  0.2272E+00  0.9148E+00
     -4.816  0.2327E+00  0.9551E+00
     -4.641  0.2393E+00  0.9965E+00
     -4.466  0.2488E+00  0.1039E+01
     -4.290  0.2621E+00  0.1084E+01
     -4.115  0.2790E+00  0.1131E+01
     -3.939  0.3042E+00  0.1182E+01
     -3.764  0.2856E+00  0.1234E+01
     -3.589  0.2803E+00  0.1283E+01
     -3.413  0.2840E+00  0.1332E+01
     -3.238  0.2939E+00  0.1383E+01
     -3.062  0.2809E+00  0.1434E+01
     -2.887  0.2501E+00  0.1481E+01
     -2.712  0.2328E+00  0.1523E+01
     -2.536  0.2300E+00  0.1563E+01
     -2.361  0.2319E+00  0.1604E+01
     -2.186  0.2325E+00  0.1644E+01
     -2.010  0.2326E+00  0.1685E+01
     -1.835  0.2849E+00  0.1730E+01
     -1.659  0.2862E+00  0.1780E+01
     -1.484  0.2958E+00  0.1831E+01
     -1.309  0.2966E+00  0.1883E+01
     -1.133  0.2932E+00  0.1935E+01
     -0.958  0.2961E+00  0.1986E+01
     -0.782  0.3019E+00  0.2039E+01
     -0.607  0.2797E+00  0.2090E+01
     -0.432  0.2580E+00  0.2137E+01
     -0.256  0.2403E+00  0.2181E+01
     -0.081  0.2402E+00  0.2223E+01
      0.094  0.2479E+00  0.2265E+01
      0.270  0.2637E+00  0.2310E+01
      0.445  0.2988E+00  0.2359E+01
      0.621  0.4164E+00  0.2421E+01
      0.796  0.4875E+00  0.2503E+01
      0.971  0.4852E+00  0.2589E+01
      1.147  0.4616E+00  0.2672E+01
      1.322  0.3825E+00  0.2746E+01
      1.498  0.3332E+00  0.2808E+01
      1.673  0.3024E+00  0.2864E+01
      1.848  0.3070E+00  0.2915E+01
      2.024  0.2830E+00  0.2967E+01
      2.199  0.2631E+00  0.3015E+01
      2.374  0.2691E+00  0.3061E+01
      2.550  0.2820E+00  0.3110E+01
      2.725  0.3016E+00  0.3161E+01
      2.901  0.3450E+00  0.3217E+01
      3.076  0.4225E+00  0.3284E+01
      3.251  0.4289E+00  0.3363E+01
      3.427  0.4221E+00  0.3437E+01
      3.602  0.3966E+00  0.3509E+01
      3.778  0.4002E+00  0.3579E+01
      3.953  0.4311E+00  0.3651E+01
      4.128  0.4254E+00  0.3727E+01
      4.304  0.4140E+00  0.3800E+01
      4.479  0.4333E+00  0.3874E+01
      4.654  0.4493E+00  0.3952E+01
      4.830  0.4519E+00  0.4031E+01
      5.005  0.4474E+00  0.4110E+01
      5.181  0.4500E+00  0.4189E+01
      5.356  0.4547E+00  0.4268E+01
      5.531  0.5320E+00  0.4350E+01
      5.707  0.5179E+00  0.4442E+01
      5.882  0.5654E+00  0.4536E+01
      6.057  0.5938E+00  0.4641E+01
      6.233  0.6300E+00  0.4748E+01
      6.408  0.6774E+00  0.4863E+01
      6.584  0.6206E+00  0.4976E+01
      6.759  0.6142E+00  0.5085E+01
      6.934  0.6099E+00  0.5192E+01
      7.110  0.6090E+00  0.5299E+01
      7.285  0.6088E+00  0.5406E+01
      7.461  0.6070E+00  0.5512E+01
      7.636  0.5943E+00  0.5618E+01
      7.811  0.5834E+00  0.5721E+01
      7.987  0.5732E+00  0.5822E+01
      8.162  0.5681E+00  0.5922E+01
      8.337  0.5769E+00  0.6023E+01
      8.513  0.5740E+00  0.6124E+01
      8.688  0.5728E+00  0.6224E+01
      8.864  0.5631E+00  0.6324E+01
      9.039  0.5534E+00  0.6422E+01
      9.214  0.5436E+00  0.6518E+01
      9.390  0.5299E+00  0.6612E+01
      9.565  0.5201E+00  0.6704E+01
      9.741  0.5142E+00  0.6795E+01
      9.916  0.5098E+00  0.6885E+01
     10.091  0.5194E+00  0.6974E+01
     10.267  0.5201E+00  0.7066E+01
     10.442  0.4993E+00  0.7156E+01
     10.617  0.4863E+00  0.7242E+01
     10.793  0.4646E+00  0.7326E+01
     10.968  0.3830E+00  0.7401E+01
     11.144  0.3425E+00  0.7464E+01
     11.319  0.3126E+00  0.7521E+01
     11.494  0.2800E+00  0.7573E+01
     11.670  0.2577E+00  0.7620E+01
     11.845  0.2402E+00  0.7664E+01
     12.021  0.2229E+00  0.7705E+01
     12.196  0.2080E+00  0.7742E+01
     12.371  0.1938E+00  0.7778E+01
     12.547  0.1785E+00  0.7810E+01
     12.722  0.1641E+00  0.7840E+01
     12.897  0.1503E+00  0.7868E+01
     13.073  0.1360E+00  0.7893E+01
     13.248  0.1206E+00  0.7916E+01
     13.424  0.1077E+00  0.7935E+01
     13.599  0.9066E-01  0.7953E+01
     13.774  0.7638E-01  0.7968E+01
     13.950  0.6658E-01  0.7980E+01
     14.125  0.1094E+00  0.7994E+01
     14.301  0.1266E-01  0.7999E+01
     14.476  0.1638E-02  0.8000E+01
     14.651  0.0000E+00  0.8000E+01
     14.827  0.0000E+00  0.8000E+01
     15.002  0.0000E+00  0.8000E+01
     15.177  0.0000E+00  0.8000E+01
     15.353  0.0000E+00  0.8000E+01
     15.528  0.0000E+00  0.8000E+01
     15.704  0.0000E+00  0.8000E+01
     15.879  0.0000E+00  0.8000E+01
     16.054  0.0000E+00  0.8000E+01
     16.230  0.0000E+00  0.8000E+01
     16.405  0.0000E+00  0.8000E+01
     16.581  0.0000E+00  0.8000E+01
     16.756  0.0000E+00  0.8000E+01
     16.931  0.0000E+00  0.8000E+01
     17.107  0.0000E+00  0.8000E+01
     17.282  0.0000E+00  0.8000E+01
     17.457  0.0000E+00  0.8000E+01
     17.633  0.0000E+00  0.8000E+01
     17.808  0.0000E+00  0.8000E+01
     17.984  0.0000E+00  0.8000E+01
     18.159  0.0000E+00  0.8000E+01
     18.334  0.0000E+00  0.8000E+01
     18.510  0.0000E+00  0.8000E+01
     18.685  0.0000E+00  0.8000E+01
     18.861  0.0000E+00  0.8000E+01
     19.036  0.0000E+00  0.8000E+01
     19.211  0.0000E+00  0.8000E+01
     19.387  0.0000E+00  0.8000E+01
     19.562  0.1210E-01  0.8001E+01
     19.737  0.4590E-01  0.8005E+01
     19.913  0.9320E-01  0.8017E+01
     20.088  0.1330E+00  0.8038E+01
     20.264  0.1675E+00  0.8064E+01
     20.439  0.2015E+00  0.8096E+01
     20.614  0.2344E+00  0.8135E+01
     20.790  0.2698E+00  0.8179E+01
     20.965  0.3122E+00  0.8230E+01
     21.141  0.3629E+00  0.8289E+01
     21.316  0.4084E+00  0.8357E+01
     21.491  0.4233E+00  0.8430E+01
     21.667  0.4134E+00  0.8504E+01
     21.842  0.4323E+00  0.8578E+01
     22.017  0.4520E+00  0.8655E+01
     22.193  0.4723E+00  0.8736E+01
     22.368  0.4939E+00  0.8821E+01
     22.544  0.5193E+00  0.8910E+01
     22.719  0.5488E+00  0.9004E+01
     22.894  0.5853E+00  0.9103E+01
     23.070  0.6335E+00  0.9210E+01
     23.245  0.7172E+00  0.9328E+01
     23.421  0.7927E+00  0.9460E+01
     23.596  0.8662E+00  0.9606E+01
     23.771  0.9242E+00  0.9760E+01
     23.947  0.8827E+00  0.9920E+01
     24.122  0.8196E+00  0.1007E+02
     24.297  0.6000E+00  0.1020E+02
     24.473  0.5315E+00  0.1029E+02
     24.648  0.4052E+00  0.1037E+02
     24.824  0.3979E+00  0.1044E+02
     24.999  0.4703E+00  0.1052E+02
     25.174  0.5384E+00  0.1061E+02
     25.350  0.5663E+00  0.1070E+02
     25.525  0.5815E+00  0.1080E+02
     25.701  0.6545E+00  0.1091E+02
     25.876  0.7314E+00  0.1103E+02
     26.051  0.6395E+00  0.1115E+02
     26.227  0.6345E+00  0.1126E+02
     26.402  0.6259E+00  0.1138E+02
     26.577  0.6135E+00  0.1148E+02
     26.753  0.6201E+00  0.1159E+02
     26.928  0.6481E+00  0.1170E+02
     27.104  0.6955E+00  0.1182E+02
     27.279  0.5697E+00  0.1193E+02
     27.454  0.4685E+00  0.1202E+02
     27.630  0.4278E+00  0.1210E+02
     27.805  0.3985E+00  0.1217E+02
     27.981  0.3784E+00  0.1224E+02
     28.156  0.3711E+00  0.1230E+02
     28.331  0.3572E+00  0.1237E+02
     28.507  0.3133E+00  0.1243E+02
     28.682  0.3012E+00  0.1248E+02
     28.857  0.2896E+00  0.1253E+02
     29.033  0.3294E+00  0.1258E+02
     29.208  0.3250E+00  0.1264E+02
     29.384  0.3372E+00  0.1270E+02
     29.559  0.3360E+00  0.1276E+02
     29.734  0.3334E+00  0.1282E+02
     29.910  0.3324E+00  0.1288E+02
     30.085  0.3436E+00  0.1294E+02
     30.260  0.3645E+00  0.1300E+02
     30.436  0.3987E+00  0.1306E+02
     30.611  0.4397E+00  0.1314E+02
     30.787  0.4773E+00  0.1322E+02
     30.962  0.5528E+00  0.1331E+02
     31.137  0.6550E+00  0.1341E+02
     31.313  0.7121E+00  0.1355E+02
     31.488  0.6701E+00  0.1367E+02
     31.664  0.7249E+00  0.1379E+02
     31.839  0.7689E+00  0.1392E+02
     32.014  0.8341E+00  0.1406E+02
     32.190  0.7223E+00  0.1420E+02
     32.365  0.6080E+00  0.1432E+02
     32.540  0.5942E+00  0.1442E+02
     32.716  0.6888E+00  0.1453E+02
     32.891  0.8436E+00  0.1467E+02
     33.067  0.1032E+01  0.1483E+02
     33.242  0.9480E+00  0.1501E+02
     33.417  0.8329E+00  0.1516E+02
     33.593  0.7256E+00  0.1530E+02
     33.768  0.5435E+00  0.1541E+02
     33.944  0.4311E+00  0.1550E+02
     34.119  0.3789E+00  0.1557E+02
     34.294  0.3424E+00  0.1563E+02
     34.470  0.3075E+00  0.1569E+02
     34.645  0.2785E+00  0.1574E+02
     34.820  0.2573E+00  0.1579E+02
     34.996  0.2227E+00  0.1583E+02
     35.171  0.1919E+00  0.1587E+02
     35.347  0.1657E+00  0.1590E+02
     35.522  0.1507E+00  0.1592E+02
     35.697  0.1392E+00  0.1595E+02
     35.873  0.1163E+00  0.1597E+02
     36.048  0.5988E-01  0.1599E+02
     36.224  0.1993E-01  0.1600E+02
     36.399  0.1417E-02  0.1600E+02
     36.574  0.0000E+00  0.1600E+02
     36.750  0.0000E+00  0.1600E+02
     36.925  0.0000E+00  0.1600E+02
     37.100  0.0000E+00  0.1600E+02
     37.276  0.0000E+00  0.1600E+02
     37.451  0.0000E+00  0.1600E+02
     37.627  0.0000E+00  0.1600E+02
     37.802  0.0000E+00  0.1600E+02
     37.977  0.0000E+00  0.1600E+02
     38.153  0.0000E+00  0.1600E+02
     38.328  0.0000E+00  0.1600E+02
     38.504  0.0000E+00  0.1600E+02
     38.679  0.0000E+00  0.1600E+02
     38.854  0.0000E+00  0.1600E+02
