    2    2    1    1
  0.4204385E+01  0.2282527E-09  0.2282527E-09  0.2282527E-09  0.5000000E-15
  1.000000000000000E-004
  CAR 
 unknown system                          
    8   72    8
 
  0.0000000E+00  0.0000000E+00  0.0000000E+00  0.5787037E-03
   1      -11.369294
   2       14.574478
   3       14.574478
   4       14.574478
   5       20.997940
   6       20.997940
   7       20.997940
   8       35.358263
 
  0.8333333E-01  0.0000000E+00  0.0000000E+00  0.4629630E-02
   1      -11.136253
   2       12.985821
   3       14.124989
   4       14.124989
   5       21.583479
   6       21.583479
   7       22.130081
   8       35.153900
 
  0.1666667E+00  0.0000000E+00  0.0000000E+00  0.4629630E-02
   1      -10.437700
   2        9.834302
   3       13.183847
   4       13.183847
   5       22.803360
   6       22.803361
   7       24.012872
   8       34.636729
 
  0.2500000E+00  0.0000000E+00  0.0000000E+00  0.4629630E-02
   1       -9.279220
   2        6.357972
   3       12.243888
   4       12.243888
   5       23.831377
   6       23.831377
   7       25.636893
   8       33.992271
 
  0.3333333E+00  0.0000000E+00  0.0000000E+00  0.4629630E-02
   1       -7.671640
   2        2.947831
   3       11.512492
   4       11.512492
   5       24.270268
   6       24.270268
   7       26.848938
   8       33.402244
 
  0.4166667E+00  0.0000000E+00  0.0000000E+00  0.4629630E-02
   1       -5.641737
   2       -0.211983
   3       11.059982
   4       11.059982
   5       24.297452
   6       24.297452
   7       27.609641
   8       32.999817
 
  0.5000000E+00  0.0000000E+00  0.0000000E+00  0.2314815E-02
   1       -3.636580
   2       -2.600544
   3       10.907714
   4       10.907714
   5       24.260130
   6       24.260130
   7       27.871334
   8       32.861022
 
  0.8333333E-01  0.8333333E-01  0.0000000E+00  0.3472222E-02
   1      -11.058465
   2       13.286988
   3       13.286988
   4       13.955111
   5       20.806333
   6       22.589183
   7       22.589183
   8       34.620835
 
  0.1666667E+00  0.8333333E-01  0.0000000E+00  0.1388889E-01
   1      -10.515166
   2       10.888875
   3       12.210252
   4       13.478777
   5       21.237277
   6       24.028014
   7       24.243139
   8       33.242263
 
  0.2500000E+00  0.8333333E-01  0.0000000E+00  0.1388889E-01
   1       -9.510212
   2        7.595746
   3       11.276759
   4       12.601826
   5       22.325251
   6       25.202449
   7       25.844024
   8       32.241187
 
  0.3333333E+00  0.8333333E-01  0.0000000E+00  0.1388889E-01
   1       -8.053007
   2        4.202817
   3       10.640463
   4       11.623414
   5       23.171066
   6       25.676442
   7       27.085309
   8       32.215388
 
  0.4166667E+00  0.8333333E-01  0.0000000E+00  0.1388889E-01
   1       -6.162703
   2        0.977165
   3       10.353355
   4       10.779673
   5       23.536438
   6       25.534303
   7       27.978716
   8       32.756188
 
  0.5000000E+00  0.8333333E-01  0.0000000E+00  0.1388889E-01
   1       -3.940369
   2       -1.870023
   3       10.178357
   4       10.420914
   5       23.785836
   6       25.157704
   7       28.421001
   8       33.180022
 
 -0.4166667E+00  0.8333333E-01  0.0000000E+00  0.1388889E-01
   1       -4.694027
   2       -0.988955
   3        9.878568
   4       10.822533
   5       24.179895
   6       24.788142
   7       28.313044
   8       33.311018
 
 -0.3333333E+00  0.8333333E-01  0.0000000E+00  0.1388889E-01
   1       -6.839372
   2        2.028954
   3        9.916010
   4       11.516792
   5       24.396992
   6       24.678412
   7       27.641589
   8       33.236945
 
 -0.2500000E+00  0.8333333E-01  0.0000000E+00  0.1388889E-01
   1       -8.588302
   2        5.336248
   3       10.305744
   4       12.432372
   5       23.734175
   6       24.938772
   7       26.471970
   8       33.203383
 
 -0.1666667E+00  0.8333333E-01  0.0000000E+00  0.1388889E-01
   1       -9.896199
   2        8.745120
   3       11.035708
   4       13.425255
   5       22.667949
   6       24.407028
   7       24.985219
   8       33.640157
 
 -0.8333333E-01  0.8333333E-01  0.0000000E+00  0.6944444E-02
   1      -10.747957
   2       11.783816
   3       12.173884
   4       14.164357
   5       21.667939
   6       23.001088
   7       23.422884
   8       34.544816
 
  0.1666667E+00  0.1666667E+00  0.0000000E+00  0.3472222E-02
   1      -10.127706
   2       11.057640
   3       11.057640
   4       12.226763
   5       20.343156
   6       25.704403
   7       25.704404
   8       30.659567
 
  0.2500000E+00  0.1666667E+00  0.0000000E+00  0.1388889E-01
   1       -9.278493
   2        8.740921
   3       10.079422
   4       11.458710
   5       20.713264
   6       27.191537
   7       27.228661
   8       28.979291
 
  0.3333333E+00  0.1666667E+00  0.0000000E+00  0.1388889E-01
   1       -7.976014
   2        5.637574
   3        9.429697
   4       10.435746
   5       21.686248
   6       27.720942
   7       27.971304
   8       29.460647
 
  0.4166667E+00  0.1666667E+00  0.0000000E+00  0.1388889E-01
   1       -6.236756
   2        2.487427
   3        9.167408
   4        9.317761
   5       22.301833
   6       27.950456
   7       28.715269
   8       30.719898
 
  0.5000000E+00  0.1666667E+00  0.0000000E+00  0.1388889E-01
   1       -4.113988
   2       -0.440001
   3        8.363491
   4        9.304170
   5       22.662082
   6       27.456357
   7       29.848478
   8       32.303800
 
 -0.4166667E+00  0.1666667E+00  0.0000000E+00  0.1388889E-01
   1       -3.390131
   2       -1.271495
   3        7.703754
   4        9.819681
   5       23.184388
   6       26.799762
   7       30.092259
   8       33.792899
 
 -0.3333333E+00  0.1666667E+00  0.0000000E+00  0.1388889E-01
   1       -5.571498
   2        1.515149
   3        7.406081
   4       10.660288
   5       23.970710
   6       26.025993
   7       29.494830
   8       33.708599
 
 -0.2500000E+00  0.1666667E+00  0.0000000E+00  0.1388889E-01
   1       -7.446047
   2        4.654303
   3        7.507701
   4       11.719488
   5       24.854773
   6       24.970951
   7       28.157154
   8       32.980275
 
 -0.1666667E+00  0.1666667E+00  0.0000000E+00  0.6944444E-02
   1       -8.895319
   2        7.662903
   3        8.239102
   4       12.781809
   5       23.647232
   6       25.323699
   7       26.382935
   8       32.809838
 
  0.2500000E+00  0.2500000E+00  0.0000000E+00  0.3472222E-02
   1       -8.586755
   2        9.032090
   3        9.032090
   4        9.620455
   5       19.828954
   6       26.334193
   7       29.134495
   8       29.134495
 
  0.3333333E+00  0.2500000E+00  0.0000000E+00  0.1388889E-01
   1       -7.441250
   2        6.851044
   3        8.310984
   4        8.657016
   5       20.232938
   6       25.095664
   7       30.453522
   8       30.740292
 
  0.4166667E+00  0.2500000E+00  0.0000000E+00  0.1388889E-01
   1       -5.858478
   2        4.094393
   3        7.377643
   4        7.989322
   5       21.046847
   6       25.668294
   7       30.833060
   8       31.954691
 
  0.5000000E+00  0.2500000E+00  0.0000000E+00  0.1388889E-01
   1       -3.878849
   2        1.305957
   3        6.125078
   4        8.088928
   5       21.488005
   6       28.077500
   7       30.444627
   8       32.689518
 
 -0.4166667E+00  0.2500000E+00  0.0000000E+00  0.1388889E-01
   1       -2.068585
   2       -0.764876
   3        5.166481
   4        8.597250
   5       21.995098
   6       29.611901
   7       31.238441
   8       32.961965
 
 -0.3333333E+00  0.2500000E+00  0.0000000E+00  0.1388889E-01
   1       -3.904855
   2        1.434927
   3        4.602417
   4        9.464985
   5       22.801762
   6       28.424211
   7       32.096985
   8       34.178343
 
 -0.2500000E+00  0.2500000E+00  0.0000000E+00  0.6944444E-02
   1       -5.870339
   2        4.132958
   3        4.704759
   4       10.582713
   5       23.860806
   6       26.794330
   7       30.352937
   8       33.467280
 
  0.3333333E+00  0.3333333E+00  0.0000000E+00  0.3472222E-02
   1       -6.454858
   2        6.381610
   3        7.496215
   4        7.496215
   5       19.478907
   6       23.128898
   7       32.473261
   8       32.473261
 
  0.4166667E+00  0.3333333E+00  0.0000000E+00  0.1388889E-01
   1       -5.032473
   2        4.526769
   3        6.316154
   4        7.077566
   5       19.972645
   6       22.627464
   7       33.499438
   8       33.833449
 
  0.5000000E+00  0.3333333E+00  0.0000000E+00  0.1388889E-01
   1       -3.209766
   2        2.630035
   3        4.437673
   4        7.088453
   5       20.568540
   6       24.294380
   7       33.427950
   8       34.673254
 
 -0.4166667E+00  0.3333333E+00  0.0000000E+00  0.1388889E-01
   1       -1.183475
   2        0.693374
   3        2.873570
   4        7.525711
   5       21.021424
   6       27.554889
   7       32.470995
   8       35.008547
 
 -0.3333333E+00  0.3333333E+00  0.0000000E+00  0.6944444E-02
   1       -1.944253
   2        1.516159
   3        2.204847
   4        8.350003
   5       21.756714
   6       30.760739
   7       31.405515
   8       34.925532
 
  0.4166667E+00  0.4166667E+00  0.0000000E+00  0.3472222E-02
   1       -3.773389
   2        2.848600
   3        6.548115
   4        6.548116
   5       19.462451
   6       21.077086
   7       35.255809
   8       35.255809
 
  0.5000000E+00  0.4166667E+00  0.0000000E+00  0.1388889E-01
   1       -2.114386
   2        1.184507
   3        5.492792
   4        6.447603
   5       20.006069
   6       21.270900
   7       35.643886
   8       36.019938
 
 -0.4166667E+00  0.4166667E+00  0.0000000E+00  0.6944444E-02
   1       -0.241574
   2       -0.084116
   3        3.553481
   4        6.782869
   5       20.389667
   6       23.866451
   7       34.649222
   8       36.039793
 
  0.5000000E+00  0.5000000E+00  0.0000000E+00  0.1736111E-02
   1       -0.622395
   2       -0.622394
   3        6.228235
   4        6.228235
   5       19.934459
   6       19.934459
   7       36.462711
   8       36.462711
 
  0.2500000E+00  0.1666667E+00  0.8333333E-01  0.1388889E-01
   1       -9.818717
   2        9.652637
   3       10.110674
   4       12.941833
   5       21.578361
   6       25.516498
   7       25.702990
   8       31.493815
 
  0.3333333E+00  0.1666667E+00  0.8333333E-01  0.2777778E-01
   1       -8.664859
   2        6.662729
   3        9.155532
   4       12.039006
   5       22.664238
   6       26.067748
   7       27.331114
   8       30.877388
 
  0.4166667E+00  0.1666667E+00  0.8333333E-01  0.2777778E-01
   1       -7.066167
   2        3.408481
   3        8.722287
   4       10.981705
   5       23.501310
   6       25.972936
   7       28.637084
   8       31.567820
 
  0.5000000E+00  0.1666667E+00  0.8333333E-01  0.2777778E-01
   1       -5.053599
   2        0.332054
   3        8.632362
   4       10.090831
   5       23.711570
   6       25.825019
   7       29.517872
   8       32.849877
 
 -0.4166667E+00  0.1666667E+00  0.8333333E-01  0.1388889E-01
   1       -3.110684
   2       -1.975387
   3        8.699283
   4        9.684585
   5       23.709642
   6       25.762807
   7       29.830522
   8       33.576783
 
  0.3333333E+00  0.2500000E+00  0.8333333E-01  0.1388889E-01
   1       -8.281177
   2        7.647828
   3        8.178622
   4       10.535687
   5       21.116171
   6       26.823427
   7       28.825012
   8       29.150082
 
  0.4166667E+00  0.2500000E+00  0.8333333E-01  0.2777778E-01
   1       -6.837843
   2        4.928200
   3        7.441249
   4        9.448867
   5       22.186882
   6       26.434877
   7       29.440321
   8       30.771459
 
  0.5000000E+00  0.2500000E+00  0.8333333E-01  0.2777778E-01
   1       -4.974966
   2        1.963365
   3        7.127289
   4        8.488948
   5       22.769934
   6       27.181422
   7       30.194990
   8       31.860405
 
 -0.4166667E+00  0.2500000E+00  0.8333333E-01  0.2777778E-01
   1       -2.829752
   2       -0.712805
   3        6.668100
   4        8.314472
   5       23.096769
   6       27.368049
   7       32.004633
   8       32.517529
 
 -0.3333333E+00  0.2500000E+00  0.8333333E-01  0.2777778E-01
   1       -3.554084
   2        0.139845
   3        6.172791
   4        8.904255
   5       23.628061
   6       26.828518
   7       32.014422
   8       33.413878
 
 -0.2500000E+00  0.2500000E+00  0.8333333E-01  0.2777778E-01
   1       -5.644970
   2        3.008785
   3        5.982501
   4        9.900380
   5       24.417868
   6       25.773040
   7       31.023181
   8       31.843133
 
 -0.1666667E+00  0.2500000E+00  0.8333333E-01  0.1388889E-01
   1       -7.369847
   2        5.827951
   3        6.429227
   4       11.063357
   5       24.033668
   6       25.548687
   7       29.294406
   8       30.877085
 
  0.4166667E+00  0.3333333E+00  0.8333333E-01  0.1388889E-01
   1       -6.156353
   2        5.725339
   3        6.703129
   4        7.729135
   5       20.773060
   6       24.133842
   7       31.357176
   8       32.551415
 
  0.5000000E+00  0.3333333E+00  0.8333333E-01  0.2777778E-01
   1       -4.451210
   2        3.539221
   3        5.618627
   4        6.933184
   5       21.758092
   6       24.907177
   7       31.448583
   8       33.864956
 
 -0.4166667E+00  0.3333333E+00  0.8333333E-01  0.2777778E-01
   1       -2.405182
   2        1.067935
   3        4.470075
   4        7.008674
   5       22.203856
   6       27.504415
   7       31.127102
   8       34.292813
 
 -0.3333333E+00  0.3333333E+00  0.8333333E-01  0.2777778E-01
   1       -1.785400
   2        0.448376
   3        3.597145
   4        7.649276
   5       22.756938
   6       29.066243
   7       32.060529
   8       33.703057
 
 -0.2500000E+00  0.3333333E+00  0.8333333E-01  0.1388889E-01
   1       -3.827864
   2        2.774225
   3        3.392240
   4        8.673266
   5       23.599161
   6       27.642151
   7       32.569891
   8       33.378753
 
  0.5000000E+00  0.4166667E+00  0.8333333E-01  0.1388889E-01
   1       -3.490069
   2        2.940210
   3        5.803058
   4        6.029229
   5       20.739929
   6       22.232286
   7       34.033950
   8       35.225327
 
 -0.4166667E+00  0.4166667E+00  0.8333333E-01  0.2777778E-01
   1       -1.590937
   2        1.468976
   3        3.875684
   4        6.058855
   5       21.513234
   6       24.041492
   7       33.719037
   8       35.359628
 
 -0.3333333E+00  0.4166667E+00  0.8333333E-01  0.1388889E-01
   1       -0.215482
   2        0.681877
   3        2.136482
   4        6.654844
   5       21.998128
   6       27.425137
   7       32.380113
   8       34.508881
 
 -0.4166667E+00  0.5000000E+00  0.8333333E-01  0.6944444E-02
   1       -0.378952
   2       -0.378952
   3        5.543935
   4        5.543936
   5       21.170058
   6       21.170058
   7       35.790936
   8       35.790936
 
  0.5000000E+00  0.3333333E+00  0.1666667E+00  0.1388889E-01
   1       -5.269477
   2        4.300099
   3        5.041182
   4        8.231029
   5       23.876590
   6       25.525141
   7       29.997099
   8       32.800447
 
 -0.4166667E+00  0.3333333E+00  0.1666667E+00  0.2777778E-01
   1       -3.319680
   2        1.852931
   3        4.757717
   4        7.097941
   5       24.459405
   6       26.376937
   7       30.800737
   8       33.998328
 
 -0.3333333E+00  0.3333333E+00  0.1666667E+00  0.1388889E-01
   1       -1.552607
   2       -0.187504
   3        4.861954
   4        6.586116
   5       24.333601
   6       27.127089
   7       32.666432
   8       32.845583
 
 -0.4166667E+00  0.4166667E+00  0.1666667E+00  0.1388889E-01
   1       -2.659926
   2        2.793634
   3        4.227009
   4        5.383637
   5       23.849732
   6       24.773453
   7       31.332016
   8       34.796727
 
 -0.3333333E+00  0.4166667E+00  0.1666667E+00  0.2777778E-01
   1       -0.692137
   2        1.176401
   3        3.191110
   4        5.058438
   5       24.441249
   6       27.055551
   7       31.146926
   8       33.094370
 
 -0.2500000E+00  0.4166667E+00  0.1666667E+00  0.1388889E-01
   1       -1.383516
   2        1.799254
   3        2.717023
   4        5.826473
   5       24.796478
   6       27.551380
   7       31.403325
   8       32.524732
 
 -0.3333333E+00  0.5000000E+00  0.1666667E+00  0.6944444E-02
   1        0.271635
   2        0.271635
   3        4.144931
   4        4.144931
   5       24.131118
   6       24.131118
   7       33.457957
   8       33.457957
 
 -0.2500000E+00  0.5000000E+00  0.2500000E+00  0.3472222E-02
   1        0.793490
   2        0.793490
   3        3.297085
   4        3.297085
   5       26.541105
   6       26.541105
   7       31.149528
   8       31.149528
