<?xml version="1.0" encoding="ISO-8859-1"?>
<modeling>
 <generator>
  <i name="program" type="string">vasp </i>
  <i name="version" type="string">5.3.3  </i>
  <i name="subversion" type="string">18Dez12 (build Oct 01 2014 18:44:37) complex                          parallel </i>
  <i name="platform" type="string">LinuxIFC </i>
  <i name="date" type="string">2014 10 29 </i>
  <i name="time" type="string">16:45:31 </i>
 </generator>
 <incar>
  <i type="int" name="ISTART">     0</i>
  <i type="string" name="PREC">high</i>
  <i type="string" name="ALGO"> Normal</i>
  <i type="int" name="ICHARG">     2</i>
  <i type="int" name="NELM">    50</i>
  <i type="int" name="NELMIN">     5</i>
  <i name="EDIFF">      0.00001000</i>
  <i type="int" name="NBANDS">     8</i>
  <i type="logical" name="LREAL"> F  </i>
  <i type="int" name="ISMEAR">    -5</i>
  <i type="int" name="NELM">    50</i>
 </incar>
 <kpoints>
  <generation param="Gamma">
   <v type="int" name="divisions">      12       12       12 </v>
   <v name="usershift">      0.00000000       0.00000000       0.00000000 </v>
   <v name="genvec1">      0.08333333       0.00000000       0.00000000 </v>
   <v name="genvec2">      0.00000000       0.08333333       0.00000000 </v>
   <v name="genvec3">      0.00000000       0.00000000       0.08333333 </v>
   <v name="shift">      0.00000000       0.00000000       0.00000000 </v>
  </generation>
  <varray name="kpointlist" >
   <v>       0.00000000       0.00000000       0.00000000 </v>
   <v>       0.08333333       0.00000000       0.00000000 </v>
   <v>       0.16666667       0.00000000       0.00000000 </v>
   <v>       0.25000000       0.00000000       0.00000000 </v>
   <v>       0.33333333       0.00000000       0.00000000 </v>
   <v>       0.41666667       0.00000000       0.00000000 </v>
   <v>       0.50000000       0.00000000       0.00000000 </v>
   <v>       0.08333333       0.08333333       0.00000000 </v>
   <v>       0.16666667       0.08333333       0.00000000 </v>
   <v>       0.25000000       0.08333333       0.00000000 </v>
   <v>       0.33333333       0.08333333       0.00000000 </v>
   <v>       0.41666667       0.08333333       0.00000000 </v>
   <v>       0.50000000       0.08333333       0.00000000 </v>
   <v>      -0.41666667       0.08333333       0.00000000 </v>
   <v>      -0.33333333       0.08333333       0.00000000 </v>
   <v>      -0.25000000       0.08333333       0.00000000 </v>
   <v>      -0.16666667       0.08333333       0.00000000 </v>
   <v>      -0.08333333       0.08333333       0.00000000 </v>
   <v>       0.16666667       0.16666667       0.00000000 </v>
   <v>       0.25000000       0.16666667       0.00000000 </v>
   <v>       0.33333333       0.16666667       0.00000000 </v>
   <v>       0.41666667       0.16666667       0.00000000 </v>
   <v>       0.50000000       0.16666667       0.00000000 </v>
   <v>      -0.41666667       0.16666667       0.00000000 </v>
   <v>      -0.33333333       0.16666667       0.00000000 </v>
   <v>      -0.25000000       0.16666667       0.00000000 </v>
   <v>      -0.16666667       0.16666667       0.00000000 </v>
   <v>       0.25000000       0.25000000       0.00000000 </v>
   <v>       0.33333333       0.25000000       0.00000000 </v>
   <v>       0.41666667       0.25000000       0.00000000 </v>
   <v>       0.50000000       0.25000000       0.00000000 </v>
   <v>      -0.41666667       0.25000000       0.00000000 </v>
   <v>      -0.33333333       0.25000000       0.00000000 </v>
   <v>      -0.25000000       0.25000000       0.00000000 </v>
   <v>       0.33333333       0.33333333       0.00000000 </v>
   <v>       0.41666667       0.33333333       0.00000000 </v>
   <v>       0.50000000       0.33333333       0.00000000 </v>
   <v>      -0.41666667       0.33333333       0.00000000 </v>
   <v>      -0.33333333       0.33333333       0.00000000 </v>
   <v>       0.41666667       0.41666667       0.00000000 </v>
   <v>       0.50000000       0.41666667       0.00000000 </v>
   <v>      -0.41666667       0.41666667       0.00000000 </v>
   <v>       0.50000000       0.50000000       0.00000000 </v>
   <v>       0.25000000       0.16666667       0.08333333 </v>
   <v>       0.33333333       0.16666667       0.08333333 </v>
   <v>       0.41666667       0.16666667       0.08333333 </v>
   <v>       0.50000000       0.16666667       0.08333333 </v>
   <v>      -0.41666667       0.16666667       0.08333333 </v>
   <v>       0.33333333       0.25000000       0.08333333 </v>
   <v>       0.41666667       0.25000000       0.08333333 </v>
   <v>       0.50000000       0.25000000       0.08333333 </v>
   <v>      -0.41666667       0.25000000       0.08333333 </v>
   <v>      -0.33333333       0.25000000       0.08333333 </v>
   <v>      -0.25000000       0.25000000       0.08333333 </v>
   <v>      -0.16666667       0.25000000       0.08333333 </v>
   <v>       0.41666667       0.33333333       0.08333333 </v>
   <v>       0.50000000       0.33333333       0.08333333 </v>
   <v>      -0.41666667       0.33333333       0.08333333 </v>
   <v>      -0.33333333       0.33333333       0.08333333 </v>
   <v>      -0.25000000       0.33333333       0.08333333 </v>
   <v>       0.50000000       0.41666667       0.08333333 </v>
   <v>      -0.41666667       0.41666667       0.08333333 </v>
   <v>      -0.33333333       0.41666667       0.08333333 </v>
   <v>      -0.41666667       0.50000000       0.08333333 </v>
   <v>       0.50000000       0.33333333       0.16666667 </v>
   <v>      -0.41666667       0.33333333       0.16666667 </v>
   <v>      -0.33333333       0.33333333       0.16666667 </v>
   <v>      -0.41666667       0.41666667       0.16666667 </v>
   <v>      -0.33333333       0.41666667       0.16666667 </v>
   <v>      -0.25000000       0.41666667       0.16666667 </v>
   <v>      -0.33333333       0.50000000       0.16666667 </v>
   <v>      -0.25000000       0.50000000       0.25000000 </v>
  </varray>
  <varray name="weights" >
   <v>       0.00057870 </v>
   <v>       0.00462963 </v>
   <v>       0.00462963 </v>
   <v>       0.00462963 </v>
   <v>       0.00462963 </v>
   <v>       0.00462963 </v>
   <v>       0.00231481 </v>
   <v>       0.00347222 </v>
   <v>       0.01388889 </v>
   <v>       0.01388889 </v>
   <v>       0.01388889 </v>
   <v>       0.01388889 </v>
   <v>       0.01388889 </v>
   <v>       0.01388889 </v>
   <v>       0.01388889 </v>
   <v>       0.01388889 </v>
   <v>       0.01388889 </v>
   <v>       0.00694444 </v>
   <v>       0.00347222 </v>
   <v>       0.01388889 </v>
   <v>       0.01388889 </v>
   <v>       0.01388889 </v>
   <v>       0.01388889 </v>
   <v>       0.01388889 </v>
   <v>       0.01388889 </v>
   <v>       0.01388889 </v>
   <v>       0.00694444 </v>
   <v>       0.00347222 </v>
   <v>       0.01388889 </v>
   <v>       0.01388889 </v>
   <v>       0.01388889 </v>
   <v>       0.01388889 </v>
   <v>       0.01388889 </v>
   <v>       0.00694444 </v>
   <v>       0.00347222 </v>
   <v>       0.01388889 </v>
   <v>       0.01388889 </v>
   <v>       0.01388889 </v>
   <v>       0.00694444 </v>
   <v>       0.00347222 </v>
   <v>       0.01388889 </v>
   <v>       0.00694444 </v>
   <v>       0.00173611 </v>
   <v>       0.01388889 </v>
   <v>       0.02777778 </v>
   <v>       0.02777778 </v>
   <v>       0.02777778 </v>
   <v>       0.01388889 </v>
   <v>       0.01388889 </v>
   <v>       0.02777778 </v>
   <v>       0.02777778 </v>
   <v>       0.02777778 </v>
   <v>       0.02777778 </v>
   <v>       0.02777778 </v>
   <v>       0.01388889 </v>
   <v>       0.01388889 </v>
   <v>       0.02777778 </v>
   <v>       0.02777778 </v>
   <v>       0.02777778 </v>
   <v>       0.01388889 </v>
   <v>       0.01388889 </v>
   <v>       0.02777778 </v>
   <v>       0.01388889 </v>
   <v>       0.00694444 </v>
   <v>       0.01388889 </v>
   <v>       0.02777778 </v>
   <v>       0.01388889 </v>
   <v>       0.01388889 </v>
   <v>       0.02777778 </v>
   <v>       0.01388889 </v>
   <v>       0.00694444 </v>
   <v>       0.00347222 </v>
  </varray>
  <varray name="tetrahedronlist"  type="int" >
   <v type="int" >       24        1        2        2        8 </v>
   <v type="int" >       48        2        8        9       18 </v>
   <v type="int" >       48        2        3        9       18 </v>
   <v type="int" >       24        2        2        8       18 </v>
   <v type="int" >       48        3        9       10       17 </v>
   <v type="int" >       48        3        4       10       17 </v>
   <v type="int" >       48        3        9       17       18 </v>
   <v type="int" >       48        4       10       11       16 </v>
   <v type="int" >       48        4        5       11       16 </v>
   <v type="int" >       48        4       10       16       17 </v>
   <v type="int" >       48        5       11       12       15 </v>
   <v type="int" >       48        5        6       12       15 </v>
   <v type="int" >       48        5       11       15       16 </v>
   <v type="int" >       48        6       12       13       14 </v>
   <v type="int" >       48        6        7       13       14 </v>
   <v type="int" >       48        6       12       14       15 </v>
   <v type="int" >       48        7       13       13       14 </v>
   <v type="int" >       24        8        9        9       19 </v>
   <v type="int" >       24        8        9        9       18 </v>
   <v type="int" >       48        9       19       20       44 </v>
   <v type="int" >       48        9       10       20       44 </v>
   <v type="int" >       48        9       10       17       44 </v>
   <v type="int" >       24        9        9       19       44 </v>
   <v type="int" >       24        9        9       18       44 </v>
   <v type="int" >       48        9       17       18       44 </v>
   <v type="int" >       48       10       20       21       45 </v>
   <v type="int" >       48       10       11       21       45 </v>
   <v type="int" >       48       10       11       16       45 </v>
   <v type="int" >       48       10       20       44       45 </v>
   <v type="int" >       48       10       17       44       45 </v>
   <v type="int" >       48       10       16       17       45 </v>
   <v type="int" >       48       11       21       22       46 </v>
   <v type="int" >       48       11       12       22       46 </v>
   <v type="int" >       48       11       12       15       46 </v>
   <v type="int" >       48       11       21       45       46 </v>
   <v type="int" >       48       11       16       45       46 </v>
   <v type="int" >       48       11       15       16       46 </v>
   <v type="int" >       48       12       22       23       47 </v>
   <v type="int" >       48       12       13       23       47 </v>
   <v type="int" >       48       12       13       14       47 </v>
   <v type="int" >       48       12       22       46       47 </v>
   <v type="int" >       48       12       15       46       47 </v>
   <v type="int" >       48       12       14       15       47 </v>
   <v type="int" >       48       13       23       24       48 </v>
   <v type="int" >       48       13       14       24       48 </v>
   <v type="int" >       48       13       13       14       48 </v>
   <v type="int" >       48       13       23       47       48 </v>
   <v type="int" >       48       13       14       47       48 </v>
   <v type="int" >       48       14       24       25       47 </v>
   <v type="int" >       48       14       15       25       47 </v>
   <v type="int" >       48       14       24       47       48 </v>
   <v type="int" >       48       15       25       26       46 </v>
   <v type="int" >       48       15       16       26       46 </v>
   <v type="int" >       48       15       25       46       47 </v>
   <v type="int" >       48       16       26       27       45 </v>
   <v type="int" >       48       16       17       27       45 </v>
   <v type="int" >       48       16       26       45       46 </v>
   <v type="int" >       24       17       17       27       44 </v>
   <v type="int" >       24       17       17       18       44 </v>
   <v type="int" >       48       17       27       44       45 </v>
   <v type="int" >       24       19       20       20       28 </v>
   <v type="int" >       24       19       20       20       44 </v>
   <v type="int" >       48       20       28       29       49 </v>
   <v type="int" >       48       20       21       29       49 </v>
   <v type="int" >       48       20       21       45       49 </v>
   <v type="int" >       24       20       20       28       49 </v>
   <v type="int" >       24       20       20       44       49 </v>
   <v type="int" >       48       20       44       45       49 </v>
   <v type="int" >       48       21       29       30       50 </v>
   <v type="int" >       48       21       22       30       50 </v>
   <v type="int" >       48       21       22       46       50 </v>
   <v type="int" >       48       21       29       49       50 </v>
   <v type="int" >       48       21       45       49       50 </v>
   <v type="int" >       48       21       45       46       50 </v>
   <v type="int" >       48       22       30       31       51 </v>
   <v type="int" >       48       22       23       31       51 </v>
   <v type="int" >       48       22       23       47       51 </v>
   <v type="int" >       48       22       30       50       51 </v>
   <v type="int" >       48       22       46       50       51 </v>
   <v type="int" >       48       22       46       47       51 </v>
   <v type="int" >       48       23       31       32       52 </v>
   <v type="int" >       48       23       24       32       52 </v>
   <v type="int" >       48       23       24       48       52 </v>
   <v type="int" >       48       23       31       51       52 </v>
   <v type="int" >       48       23       47       51       52 </v>
   <v type="int" >       48       23       47       48       52 </v>
   <v type="int" >       48       24       32       33       53 </v>
   <v type="int" >       48       24       25       33       53 </v>
   <v type="int" >       48       24       25       47       53 </v>
   <v type="int" >       48       24       32       52       53 </v>
   <v type="int" >       48       24       48       52       53 </v>
   <v type="int" >       48       24       47       48       53 </v>
   <v type="int" >       48       25       33       34       54 </v>
   <v type="int" >       48       25       26       34       54 </v>
   <v type="int" >       48       25       26       46       54 </v>
   <v type="int" >       48       25       33       53       54 </v>
   <v type="int" >       48       25       47       53       54 </v>
   <v type="int" >       48       25       46       47       54 </v>
   <v type="int" >       24       26       26       34       55 </v>
   <v type="int" >       24       26       26       27       55 </v>
   <v type="int" >       48       26       27       45       55 </v>
   <v type="int" >       48       26       34       54       55 </v>
   <v type="int" >       48       26       46       54       55 </v>
   <v type="int" >       48       26       45       46       55 </v>
   <v type="int" >       24       27       45       45       55 </v>
   <v type="int" >       24       27       44       45       45 </v>
   <v type="int" >       24       28       29       29       35 </v>
   <v type="int" >       24       28       29       29       49 </v>
   <v type="int" >       48       29       35       36       56 </v>
   <v type="int" >       48       29       30       36       56 </v>
   <v type="int" >       48       29       30       50       56 </v>
   <v type="int" >       24       29       29       35       56 </v>
   <v type="int" >       24       29       29       49       56 </v>
   <v type="int" >       48       29       49       50       56 </v>
   <v type="int" >       48       30       36       37       57 </v>
   <v type="int" >       48       30       31       37       57 </v>
   <v type="int" >       48       30       31       51       57 </v>
   <v type="int" >       48       30       36       56       57 </v>
   <v type="int" >       48       30       50       56       57 </v>
   <v type="int" >       48       30       50       51       57 </v>
   <v type="int" >       48       31       37       38       58 </v>
   <v type="int" >       48       31       32       38       58 </v>
   <v type="int" >       48       31       32       52       58 </v>
   <v type="int" >       48       31       37       57       58 </v>
   <v type="int" >       48       31       51       57       58 </v>
   <v type="int" >       48       31       51       52       58 </v>
   <v type="int" >       48       32       38       39       59 </v>
   <v type="int" >       48       32       33       39       59 </v>
   <v type="int" >       48       32       33       53       59 </v>
   <v type="int" >       48       32       38       58       59 </v>
   <v type="int" >       48       32       52       58       59 </v>
   <v type="int" >       48       32       52       53       59 </v>
   <v type="int" >       24       33       33       39       60 </v>
   <v type="int" >       24       33       33       34       60 </v>
   <v type="int" >       48       33       34       54       60 </v>
   <v type="int" >       48       33       39       59       60 </v>
   <v type="int" >       48       33       53       59       60 </v>
   <v type="int" >       48       33       53       54       60 </v>
   <v type="int" >       24       34       54       54       60 </v>
   <v type="int" >       24       34       54       54       55 </v>
   <v type="int" >       24       35       36       36       40 </v>
   <v type="int" >       24       35       36       36       56 </v>
   <v type="int" >       48       36       40       41       61 </v>
   <v type="int" >       48       36       37       41       61 </v>
   <v type="int" >       48       36       37       57       61 </v>
   <v type="int" >       24       36       36       40       61 </v>
   <v type="int" >       24       36       36       56       61 </v>
   <v type="int" >       48       36       56       57       61 </v>
   <v type="int" >       48       37       41       42       62 </v>
   <v type="int" >       48       37       38       42       62 </v>
   <v type="int" >       48       37       38       58       62 </v>
   <v type="int" >       48       37       41       61       62 </v>
   <v type="int" >       48       37       57       61       62 </v>
   <v type="int" >       48       37       57       58       62 </v>
   <v type="int" >       24       38       38       42       63 </v>
   <v type="int" >       24       38       38       39       63 </v>
   <v type="int" >       48       38       39       59       63 </v>
   <v type="int" >       48       38       42       62       63 </v>
   <v type="int" >       48       38       58       62       63 </v>
   <v type="int" >       48       38       58       59       63 </v>
   <v type="int" >       24       39       59       59       63 </v>
   <v type="int" >       24       39       59       59       60 </v>
   <v type="int" >       24       40       41       41       43 </v>
   <v type="int" >       24       40       41       41       61 </v>
   <v type="int" >       48       41       41       43       64 </v>
   <v type="int" >       24       41       41       42       64 </v>
   <v type="int" >       48       41       42       62       64 </v>
   <v type="int" >       24       41       41       61       64 </v>
   <v type="int" >       48       41       61       62       64 </v>
   <v type="int" >       24       42       62       62       64 </v>
   <v type="int" >       24       42       62       62       63 </v>
   <v type="int" >       24       44       45       45       49 </v>
   <v type="int" >       48       45       49       50       55 </v>
   <v type="int" >       48       45       46       50       55 </v>
   <v type="int" >       24       45       45       49       55 </v>
   <v type="int" >       48       46       50       51       54 </v>
   <v type="int" >       48       46       47       51       54 </v>
   <v type="int" >       48       46       50       54       55 </v>
   <v type="int" >       48       47       51       52       53 </v>
   <v type="int" >       48       47       48       52       53 </v>
   <v type="int" >       48       47       51       53       54 </v>
   <v type="int" >       48       48       52       52       53 </v>
   <v type="int" >       24       49       50       50       56 </v>
   <v type="int" >       24       49       50       50       55 </v>
   <v type="int" >       48       50       56       57       65 </v>
   <v type="int" >       48       50       51       57       65 </v>
   <v type="int" >       48       50       51       54       65 </v>
   <v type="int" >       24       50       50       56       65 </v>
   <v type="int" >       24       50       50       55       65 </v>
   <v type="int" >       48       50       54       55       65 </v>
   <v type="int" >       48       51       57       58       66 </v>
   <v type="int" >       48       51       52       58       66 </v>
   <v type="int" >       48       51       52       53       66 </v>
   <v type="int" >       48       51       57       65       66 </v>
   <v type="int" >       48       51       54       65       66 </v>
   <v type="int" >       48       51       53       54       66 </v>
   <v type="int" >       48       52       58       59       67 </v>
   <v type="int" >       48       52       53       59       67 </v>
   <v type="int" >       48       52       52       53       67 </v>
   <v type="int" >       48       52       58       66       67 </v>
   <v type="int" >       48       52       53       66       67 </v>
   <v type="int" >       48       53       59       60       66 </v>
   <v type="int" >       48       53       54       60       66 </v>
   <v type="int" >       48       53       59       66       67 </v>
   <v type="int" >       24       54       54       60       65 </v>
   <v type="int" >       24       54       54       55       65 </v>
   <v type="int" >       48       54       60       65       66 </v>
   <v type="int" >       24       56       57       57       61 </v>
   <v type="int" >       24       56       57       57       65 </v>
   <v type="int" >       48       57       61       62       68 </v>
   <v type="int" >       48       57       58       62       68 </v>
   <v type="int" >       48       57       58       66       68 </v>
   <v type="int" >       24       57       57       61       68 </v>
   <v type="int" >       24       57       57       65       68 </v>
   <v type="int" >       48       57       65       66       68 </v>
   <v type="int" >       48       58       62       63       69 </v>
   <v type="int" >       48       58       59       63       69 </v>
   <v type="int" >       48       58       59       67       69 </v>
   <v type="int" >       48       58       62       68       69 </v>
   <v type="int" >       48       58       66       68       69 </v>
   <v type="int" >       48       58       66       67       69 </v>
   <v type="int" >       24       59       59       63       70 </v>
   <v type="int" >       24       59       59       60       70 </v>
   <v type="int" >       48       59       60       66       70 </v>
   <v type="int" >       48       59       63       69       70 </v>
   <v type="int" >       48       59       67       69       70 </v>
   <v type="int" >       48       59       66       67       70 </v>
   <v type="int" >       24       60       66       66       70 </v>
   <v type="int" >       24       60       65       66       66 </v>
   <v type="int" >       24       61       62       62       64 </v>
   <v type="int" >       24       61       62       62       68 </v>
   <v type="int" >       48       62       62       64       71 </v>
   <v type="int" >       24       62       62       63       71 </v>
   <v type="int" >       48       62       63       69       71 </v>
   <v type="int" >       24       62       62       68       71 </v>
   <v type="int" >       48       62       68       69       71 </v>
   <v type="int" >       24       63       69       69       71 </v>
   <v type="int" >       24       63       69       69       70 </v>
   <v type="int" >       24       65       66       66       68 </v>
   <v type="int" >       48       66       68       69       70 </v>
   <v type="int" >       48       66       67       69       70 </v>
   <v type="int" >       24       66       66       68       70 </v>
   <v type="int" >       48       67       69       69       70 </v>
   <v type="int" >       24       68       69       69       71 </v>
   <v type="int" >       24       68       69       69       70 </v>
   <v type="int" >       48       69       69       71       72 </v>
   <v type="int" >       96       69       69       70       72 </v>
  </varray>
  <i name="volumeweight">      0.00009645 </i>
 </kpoints>
 <parameters>
  <separator name="general" >
   <i type="string" name="SYSTEM">unknown system</i>
   <i type="logical" name="LCOMPAT"> F  </i>
  </separator>
  <separator name="electronic" >
   <i type="string" name="PREC">high</i>
   <i name="ENMAX">    500.00000000</i>
   <i name="ENAUG">    644.87300000</i>
   <i name="EDIFF">      0.00001000</i>
   <i type="int" name="IALGO">    38</i>
   <i type="int" name="IWAVPR">    10</i>
   <i type="int" name="NBANDS">     8</i>
   <i name="NELECT">      8.00000000</i>
   <i type="int" name="TURBO">     0</i>
   <i type="int" name="IRESTART">     0</i>
   <i type="int" name="NREBOOT">     0</i>
   <i type="int" name="NMIN">     0</i>
   <i name="EREF">      0.00000000</i>
   <separator name="electronic smearing" >
    <i type="int" name="ISMEAR">    -5</i>
    <i name="SIGMA">      0.20000000</i>
    <i name="KSPACING">      0.50000000</i>
    <i type="logical" name="KGAMMA"> T  </i>
   </separator>
   <separator name="electronic projectors" >
    <i type="logical" name="LREAL"> F  </i>
    <v name="ROPT">      0.00000000</v>
    <i type="int" name="LMAXPAW">  -100</i>
    <i type="int" name="LMAXMIX">     2</i>
    <i type="logical" name="NLSPLINE"> F  </i>
   </separator>
   <separator name="electronic startup" >
    <i type="int" name="ISTART">     0</i>
    <i type="int" name="ICHARG">     2</i>
    <i type="int" name="INIWAV">     1</i>
   </separator>
   <separator name="electronic spin" >
    <i type="int" name="ISPIN">     1</i>
    <i type="logical" name="LNONCOLLINEAR"> F  </i>
    <v name="MAGMOM">      1.00000000      1.00000000</v>
    <i name="NUPDOWN">     -1.00000000</i>
    <i type="logical" name="LSORBIT"> F  </i>
    <v name="SAXIS">      0.00000000      0.00000000      1.00000000</v>
    <i type="logical" name="LSPIRAL"> F  </i>
    <v name="QSPIRAL">      0.00000000      0.00000000      0.00000000</v>
    <i type="logical" name="LZEROZ"> F  </i>
   </separator>
   <separator name="electronic exchange-correlation" >
    <i type="logical" name="LASPH"> F  </i>
    <i type="logical" name="LMETAGGA"> F  </i>
   </separator>
   <separator name="electronic convergence" >
    <i type="int" name="NELM">    50</i>
    <i type="int" name="NELMDL">    -5</i>
    <i type="int" name="NELMIN">     5</i>
    <i name="ENINI">    500.00000000</i>
    <separator name="electronic convergence detail" >
     <i type="logical" name="LDIAG"> T  </i>
     <i type="logical" name="LSUBROT"> T  </i>
     <i name="WEIMIN">      0.00000000</i>
     <i name="EBREAK">      0.00000031</i>
     <i name="DEPER">      0.30000000</i>
     <i type="int" name="NRMM">     4</i>
     <i name="TIME">      0.40000000</i>
    </separator>
   </separator>
   <separator name="electronic mixer" >
    <i name="AMIX">      0.40000000</i>
    <i name="BMIX">      1.00000000</i>
    <i name="AMIN">      0.10000000</i>
    <i name="AMIX_MAG">      1.60000000</i>
    <i name="BMIX_MAG">      1.00000000</i>
    <separator name="electronic mixer details" >
     <i type="int" name="IMIX">     4</i>
     <i type="int" name="MAXMIX">   -45</i>
     <i name="WC">    100.00000000</i>
     <i type="int" name="INIMIX">     1</i>
     <i type="int" name="MIXPRE">     1</i>
     <i type="int" name="MREMOVE">     5</i>
    </separator>
   </separator>
   <separator name="electronic dipolcorrection" >
    <i type="logical" name="LDIPOL"> F  </i>
    <i type="logical" name="LMONO"> F  </i>
    <i type="int" name="IDIPOL">     0</i>
    <i name="EPSILON">      1.00000000</i>
    <v name="DIPOL">   -100.00000000   -100.00000000   -100.00000000</v>
    <i name="EFIELD">      0.00000000</i>
   </separator>
  </separator>
  <separator name="grids" >
   <i type="int" name="NGX">    18</i>
   <i type="int" name="NGY">    18</i>
   <i type="int" name="NGZ">    18</i>
   <i type="int" name="NGXF">    28</i>
   <i type="int" name="NGYF">    28</i>
   <i type="int" name="NGZF">    28</i>
   <i type="logical" name="ADDGRID"> F  </i>
  </separator>
  <separator name="ionic" >
   <i type="int" name="NSW">     0</i>
   <i type="int" name="IBRION">    -1</i>
   <i type="int" name="ISIF">     2</i>
   <i name="PSTRESS">      0.00000000</i>
   <i name="EDIFFG">      0.00010000</i>
   <i type="int" name="NFREE">     0</i>
   <i name="POTIM">      0.50000000</i>
   <i name="SMASS">     -3.00000000</i>
   <i name="SCALEE">      1.00000000</i>
  </separator>
  <separator name="ionic md" >
   <i name="TEBEG">      0.00010000</i>
   <i name="TEEND">      0.00010000</i>
   <i type="int" name="NBLOCK">     1</i>
   <i type="int" name="KBLOCK">     1</i>
   <i type="int" name="NPACO">   256</i>
   <i name="APACO">     16.00000000</i>
  </separator>
  <separator name="symmetry" >
   <i type="int" name="ISYM">     2</i>
   <i name="SYMPREC">      0.00001000</i>
  </separator>
  <separator name="dos" >
   <i type="logical" name="LORBIT"> F  </i>
   <v name="RWIGS">     -1.00000000</v>
   <i type="int" name="NEDOS">   301</i>
   <i name="EMIN">     10.00000000</i>
   <i name="EMAX">    -10.00000000</i>
   <i name="EFERMI">      0.00000000</i>
  </separator>
  <separator name="writing" >
   <i type="int" name="NWRITE">     2</i>
   <i type="logical" name="LWAVE"> T  </i>
   <i type="logical" name="LCHARG"> T  </i>
   <i type="logical" name="LPARD"> F  </i>
   <i type="logical" name="LVTOT"> F  </i>
   <i type="logical" name="LVHAR"> F  </i>
   <i type="logical" name="LELF"> F  </i>
   <i type="logical" name="LOPTICS"> F  </i>
   <v name="STM">      0.00000000      0.00000000      0.00000000      0.00000000      0.00000000      0.00000000      0.00000000</v>
  </separator>
  <separator name="performance" >
   <i type="int" name="NPAR">     4</i>
   <i type="int" name="NSIM">     4</i>
   <i type="int" name="NBLK">    -1</i>
   <i type="logical" name="LPLANE"> T  </i>
   <i type="logical" name="LSCALAPACK"> F  </i>
   <i type="logical" name="LSCAAWARE"> F  </i>
   <i type="logical" name="LSCALU"> F  </i>
   <i type="logical" name="LASYNC"> F  </i>
   <i type="logical" name="LORBITALREAL"> F  </i>
  </separator>
  <separator name="miscellaneous" >
   <i type="int" name="IDIOT">     3</i>
   <i type="logical" name="LMUSIC"> F  </i>
   <v name="POMASS">     12.01100000</v>
   <v name="DARWINR">      0.00000000</v>
   <v name="DARWINV">      1.00000000</v>
   <i type="logical" name="LCORR"> T  </i>
  </separator>
  <i type="logical" name="GGA_COMPAT"> T  </i>
  <i type="logical" name="LBERRY"> F  </i>
  <i type="int" name="ICORELEVEL">     0</i>
  <i type="logical" name="LDAU"> F  </i>
  <i type="int" name="I_CONSTRAINED_M">     0</i>
  <separator name="electronic exchange-correlation" >
   <i type="string" name="GGA">--</i>
   <i type="int" name="VOSKOWN">     0</i>
   <i type="logical" name="LHFCALC"> F  </i>
   <i type="string" name="PRECFOCK"></i>
   <i type="logical" name="LSYMGRAD"> F  </i>
   <i type="logical" name="LHFONE"> F  </i>
   <i type="logical" name="LRHFCALC"> F  </i>
   <i type="logical" name="LTHOMAS"> F  </i>
   <i type="logical" name="LMODELHF"> F  </i>
   <i name="ENCUT4O">     -1.00000000</i>
   <i type="int" name="EXXOEP">     0</i>
   <i type="int" name="FOURORBIT">     0</i>
   <i name="AEXX">      0.00000000</i>
   <i name="HFALPHA">      0.00000000</i>
   <i name="MCALPHA">      0.00000000</i>
   <i name="ALDAX">      1.00000000</i>
   <i name="AGGAX">      1.00000000</i>
   <i name="ALDAC">      1.00000000</i>
   <i name="AGGAC">      1.00000000</i>
   <i type="int" name="NKREDX">     1</i>
   <i type="int" name="NKREDY">     1</i>
   <i type="int" name="NKREDZ">     1</i>
   <i type="logical" name="SHIFTRED"> F  </i>
   <i type="logical" name="ODDONLY"> F  </i>
   <i type="logical" name="EVENONLY"> F  </i>
   <i type="int" name="LMAXFOCK">     0</i>
   <i type="int" name="NMAXFOCKAE">     0</i>
   <i type="logical" name="LFOCKAEDFT"> F  </i>
   <i name="HFSCREEN">      0.00000000</i>
   <i name="HFSCREENC">      0.00000000</i>
   <i type="int" name="NBANDSGWLOW">     0</i>
  </separator>
  <separator name="vdW DFT" >
   <i type="logical" name="LUSE_VDW"> F  </i>
   <i name="Zab_VDW">     -0.84910000</i>
   <i name="PARAM1">      0.12340000</i>
   <i name="PARAM2">      1.00000000</i>
   <i name="PARAM3">      0.00000000</i>
  </separator>
  <separator name="model GW" >
   <i type="int" name="MODEL_GW">     0</i>
   <i name="MODEL_EPS0">      2.52263124</i>
   <i name="MODEL_ALPHA">      1.00000000</i>
  </separator>
  <separator name="linear response parameters" >
   <i type="logical" name="LEPSILON"> F  </i>
   <i type="logical" name="LRPA"> F  </i>
   <i type="logical" name="LNABLA"> F  </i>
   <i type="logical" name="LVEL"> F  </i>
   <i type="int" name="KINTER">     0</i>
   <i name="CSHIFT">      0.10000000</i>
   <i name="OMEGAMAX">     -1.00000000</i>
   <i name="DEG_THRESHOLD">      0.00200000</i>
  </separator>
  <separator name="orbital magnetization" >
   <i type="logical" name="NUCIND"> F  </i>
   <v name="MAGPOS">      0.00000000      0.00000000      0.00000000</v>
   <i type="logical" name="LNICSALL"> T  </i>
   <i type="logical" name="ORBITALMAG"> F  </i>
   <i type="logical" name="LMAGBLOCH"> F  </i>
   <i type="logical" name="LCHIMAG"> F  </i>
   <i type="logical" name="LGAUGE"> T  </i>
   <i type="int" name="MAGATOM">     0</i>
   <v name="MAGDIPOL">      0.00000000      0.00000000      0.00000000</v>
   <v name="AVECCONST">      0.00000000      0.00000000      0.00000000</v>
  </separator>
  <separator name="response functions" >
   <i type="logical" name="LADDER"> F  </i>
   <i type="logical" name="LFXC"> F  </i>
   <i type="logical" name="LHARTREE"> T  </i>
   <i type="int" name="IBSE">     0</i>
   <i type="logical" name="LTCTE"> F  </i>
   <i type="logical" name="LTETE"> F  </i>
   <i type="logical" name="LTRIPLET"> F  </i>
   <i type="logical" name="LFXCEPS"> F  </i>
   <i type="logical" name="L2ORDER"> F  </i>
   <i type="logical" name="LUSEW"> F  </i>
   <i name="ENCUTGW">     -2.00000000</i>
   <i name="ENCUTGWSOFT">     -2.00000000</i>
   <i name="ENCUTLF">     -1.00000000</i>
   <i type="int" name="LMAXMP2">    -1</i>
   <i name="SCISSOR">      0.00000000</i>
   <i type="int" name="NOMEGA">     0</i>
   <i type="int" name="NOMEGAR">     0</i>
   <i type="int" name="NBANDSGW">    -1</i>
   <i type="int" name="NBANDSO">    -1</i>
   <i type="int" name="NBANDSV">    -1</i>
   <i type="int" name="NELM">    50</i>
   <i type="int" name="DIM">     3</i>
   <i type="int" name="ANTIRES">     0</i>
   <i name="OMEGAMAX">    -30.00000000</i>
   <i name="OMEGATL">   -200.00000000</i>
   <i type="int" name="OMEGAGRID">     0</i>
   <i name="CSHIFT">     -0.10000000</i>
   <i type="logical" name="SELFENERGY"> F  </i>
   <i type="logical" name="LSPECTRAL"> F  </i>
   <i type="logical" name="ODDONLYGW"> F  </i>
   <i type="logical" name="EVENONLYGW"> F  </i>
   <i type="int" name="NKREDLFX">     1</i>
   <i type="int" name="NKREDLFY">     1</i>
   <i type="int" name="NKREDLFZ">     1</i>
   <i type="int" name="MAXMEM">  1800</i>
   <i type="int" name="TELESCOPE">     0</i>
  </separator>
 </parameters>
 <atominfo>
  <atoms>       2 </atoms>
  <types>       1 </types>
  <array name="atoms" >
   <dimension dim="1">ion</dimension>
   <field type="string">element</field>
   <field type="int">atomtype</field>
   <set>
    <rc><c>C </c><c>   1</c></rc>
    <rc><c>C </c><c>   1</c></rc>
   </set>
  </array>
  <array name="atomtypes" >
   <dimension dim="1">type</dimension>
   <field type="int">atomspertype</field>
   <field type="string">element</field>
   <field>mass</field>
   <field>valence</field>
   <field type="string">pseudopotential</field>
   <set>
    <rc><c>   2</c><c>C </c><c>     12.01100000</c><c>      4.00000000</c><c>  PAW_PBE C 08Apr2002                   </c></rc>
   </set>
  </array>
 </atominfo>
 <structure name="initialpos" >
  <crystal>
   <varray name="basis" >
    <v>      -1.61399000       0.00000000       1.61399000 </v>
    <v>       0.00000000       1.61399000       1.61399000 </v>
    <v>      -1.61399000       1.61399000       0.00000000 </v>
   </varray>
   <i name="volume">      8.40877079 </i>
   <varray name="rec_basis" >
    <v>      -0.30979126      -0.30979126       0.30979126 </v>
    <v>       0.30979126       0.30979126       0.30979126 </v>
    <v>      -0.30979126       0.30979126      -0.30979126 </v>
   </varray>
  </crystal>
  <varray name="positions" >
   <v>       0.87500000       0.87500000       0.87500000 </v>
   <v>       0.12500000       0.12500000       0.12500000 </v>
  </varray>
 </structure>
 <calculation>
  <scstep>
   <time name="dav">    0.31    0.31</time>
   <time name="total">    0.32    0.33</time>
   <energy>
    <i name="alphaZ">     39.07668222 </i>
    <i name="ewald">   -384.48191759 </i>
    <i name="hartreedc">    -11.71056808 </i>
    <i name="XCdc">     29.48250372 </i>
    <i name="pawpsdc">    217.04409276 </i>
    <i name="pawaedc">   -218.18290438 </i>
    <i name="eentropy">      0.00000000 </i>
    <i name="bandstr">     28.82666118 </i>
    <i name="atom">    294.29684335 </i>
    <i name="e_fr_energy">     -5.64860682 </i>
    <i name="e_wo_entrp">     -5.64860682 </i>
    <i name="e_0_energy">     -5.64860682 </i>
   </energy>
  </scstep>
  <scstep>
   <time name="dav">    0.41    0.42</time>
   <time name="total">    0.42    0.42</time>
   <energy>
    <i name="e_fr_energy">    -17.81700031 </i>
    <i name="e_wo_entrp">    -17.81700031 </i>
    <i name="e_0_energy">    -17.81700031 </i>
   </energy>
  </scstep>
  <scstep>
   <time name="dav">    0.30    0.30</time>
   <time name="total">    0.30    0.30</time>
   <energy>
    <i name="e_fr_energy">    -17.85667068 </i>
    <i name="e_wo_entrp">    -17.85667068 </i>
    <i name="e_0_energy">    -17.85667068 </i>
   </energy>
  </scstep>
  <scstep>
   <time name="dav">    0.38    0.38</time>
   <time name="total">    0.38    0.38</time>
   <energy>
    <i name="e_fr_energy">    -17.85669389 </i>
    <i name="e_wo_entrp">    -17.85669389 </i>
    <i name="e_0_energy">    -17.85669389 </i>
   </energy>
  </scstep>
  <scstep>
   <time name="dav">    0.29    0.29</time>
   <time name="total">    0.31    0.31</time>
   <energy>
    <i name="e_fr_energy">    -17.85669389 </i>
    <i name="e_wo_entrp">    -17.85669389 </i>
    <i name="e_0_energy">    -17.85669389 </i>
   </energy>
  </scstep>
  <scstep>
   <time name="dav">    0.29    0.29</time>
   <time name="total">    0.32    0.32</time>
   <energy>
    <i name="e_fr_energy">    -16.82564874 </i>
    <i name="e_wo_entrp">    -16.82564874 </i>
    <i name="e_0_energy">    -16.82564874 </i>
   </energy>
  </scstep>
  <scstep>
   <time name="dav">    0.31    0.31</time>
   <time name="total">    0.34    0.35</time>
   <energy>
    <i name="e_fr_energy">    -16.48235720 </i>
    <i name="e_wo_entrp">    -16.48235720 </i>
    <i name="e_0_energy">    -16.48235720 </i>
   </energy>
  </scstep>
  <scstep>
   <time name="dav">    0.28    0.29</time>
   <time name="total">    0.32    0.32</time>
   <energy>
    <i name="e_fr_energy">    -16.48405086 </i>
    <i name="e_wo_entrp">    -16.48405086 </i>
    <i name="e_0_energy">    -16.48405086 </i>
   </energy>
  </scstep>
  <scstep>
   <time name="dav">    0.33    0.34</time>
   <time name="total">    0.37    0.37</time>
   <energy>
    <i name="e_fr_energy">    -16.48403095 </i>
    <i name="e_wo_entrp">    -16.48403095 </i>
    <i name="e_0_energy">    -16.48403095 </i>
   </energy>
  </scstep>
  <scstep>
   <time name="dav">    0.29    0.29</time>
   <time name="total">    0.32    0.33</time>
   <energy>
    <i name="e_fr_energy">    -16.48404150 </i>
    <i name="e_wo_entrp">    -16.48404150 </i>
    <i name="e_0_energy">    -16.48404150 </i>
   </energy>
  </scstep>
  <scstep>
   <time name="dav">    0.18    0.18</time>
   <time name="total">    0.19    0.19</time>
   <energy>
    <i name="alphaZ">     39.07668222 </i>
    <i name="ewald">   -384.48191759 </i>
    <i name="hartreedc">    -22.48828466 </i>
    <i name="XCdc">     30.47215200 </i>
    <i name="pawpsdc">   1265.09133732 </i>
    <i name="pawaedc">  -1266.61712251 </i>
    <i name="eentropy">      0.00000000 </i>
    <i name="bandstr">     28.16626852 </i>
    <i name="atom">    294.29684335 </i>
    <i name="e_fr_energy">    -16.48404136 </i>
    <i name="e_wo_entrp">    -16.48404136 </i>
    <i name="e_0_energy">    -16.48404136 </i>
   </energy>
  </scstep>
  <structure>
   <crystal>
    <varray name="basis" >
     <v>      -1.61399000       0.00000000       1.61399000 </v>
     <v>       0.00000000       1.61399000       1.61399000 </v>
     <v>      -1.61399000       1.61399000       0.00000000 </v>
    </varray>
    <i name="volume">      8.40877079 </i>
    <varray name="rec_basis" >
     <v>      -0.30979126      -0.30979126       0.30979126 </v>
     <v>       0.30979126       0.30979126       0.30979126 </v>
     <v>      -0.30979126       0.30979126      -0.30979126 </v>
    </varray>
   </crystal>
   <varray name="positions" >
    <v>       0.87500000       0.87500000       0.87500000 </v>
    <v>       0.12500000       0.12500000       0.12500000 </v>
   </varray>
  </structure>
  <varray name="forces" >
   <v>      -0.00000000       0.00000000       0.00000000 </v>
   <v>       0.00000000      -0.00000000      -0.00000000 </v>
  </varray>
  <varray name="stress" >
   <v>    2290.09937998      -0.00000000       0.00000000 </v>
   <v>      -0.00000000    2290.09937998      -0.00000000 </v>
   <v>      -0.00000000      -0.00000000    2290.09937998 </v>
  </varray>
  <energy>
   <i name="e_fr_energy">    -16.48404136 </i>
   <i name="e_wo_entrp">    -16.48404136 </i>
   <i name="e_0_energy">      0.00000000 </i>
  </energy>
  <time name="totalsc">    3.80    3.83</time>
  <eigenvalues>
   <array>
    <dimension dim="1">band</dimension>
    <dimension dim="2">kpoint</dimension>
    <dimension dim="3">spin</dimension>
    <field>eigene</field>
    <field>occ</field>
    <set>
     <set comment="spin 1">
      <set comment="kpoint 1">
       <r>  -11.3693    1.0000 </r>
       <r>   14.5745    1.0000 </r>
       <r>   14.5745    1.0000 </r>
       <r>   14.5745    1.0000 </r>
       <r>   20.9979    0.0000 </r>
       <r>   20.9979    0.0000 </r>
       <r>   20.9979    0.0000 </r>
       <r>   35.3583    0.0000 </r>
      </set>
      <set comment="kpoint 2">
       <r>  -11.1363    1.0000 </r>
       <r>   12.9858    1.0000 </r>
       <r>   14.1250    1.0000 </r>
       <r>   14.1250    1.0000 </r>
       <r>   21.5835    0.0000 </r>
       <r>   21.5835    0.0000 </r>
       <r>   22.1301    0.0000 </r>
       <r>   35.1539    0.0000 </r>
      </set>
      <set comment="kpoint 3">
       <r>  -10.4377    1.0000 </r>
       <r>    9.8343    1.0000 </r>
       <r>   13.1838    1.0000 </r>
       <r>   13.1838    1.0000 </r>
       <r>   22.8034    0.0000 </r>
       <r>   22.8034    0.0000 </r>
       <r>   24.0129    0.0000 </r>
       <r>   34.6367    0.0000 </r>
      </set>
      <set comment="kpoint 4">
       <r>   -9.2792    1.0000 </r>
       <r>    6.3580    1.0000 </r>
       <r>   12.2439    1.0000 </r>
       <r>   12.2439    1.0000 </r>
       <r>   23.8314    0.0000 </r>
       <r>   23.8314    0.0000 </r>
       <r>   25.6369    0.0000 </r>
       <r>   33.9923    0.0000 </r>
      </set>
      <set comment="kpoint 5">
       <r>   -7.6716    1.0000 </r>
       <r>    2.9478    1.0000 </r>
       <r>   11.5125    1.0000 </r>
       <r>   11.5125    1.0000 </r>
       <r>   24.2703    0.0000 </r>
       <r>   24.2703    0.0000 </r>
       <r>   26.8489    0.0000 </r>
       <r>   33.4022    0.0000 </r>
      </set>
      <set comment="kpoint 6">
       <r>   -5.6417    1.0000 </r>
       <r>   -0.2120    1.0000 </r>
       <r>   11.0600    1.0000 </r>
       <r>   11.0600    1.0000 </r>
       <r>   24.2975    0.0000 </r>
       <r>   24.2975    0.0000 </r>
       <r>   27.6096    0.0000 </r>
       <r>   32.9998    0.0000 </r>
      </set>
      <set comment="kpoint 7">
       <r>   -3.6366    1.0000 </r>
       <r>   -2.6005    1.0000 </r>
       <r>   10.9077    1.0000 </r>
       <r>   10.9077    1.0000 </r>
       <r>   24.2601    0.0000 </r>
       <r>   24.2601    0.0000 </r>
       <r>   27.8713    0.0000 </r>
       <r>   32.8610    0.0000 </r>
      </set>
      <set comment="kpoint 8">
       <r>  -11.0585    1.0000 </r>
       <r>   13.2870    1.0000 </r>
       <r>   13.2870    1.0000 </r>
       <r>   13.9551    1.0000 </r>
       <r>   20.8063    0.0000 </r>
       <r>   22.5892    0.0000 </r>
       <r>   22.5892    0.0000 </r>
       <r>   34.6208    0.0000 </r>
      </set>
      <set comment="kpoint 9">
       <r>  -10.5152    1.0000 </r>
       <r>   10.8889    1.0000 </r>
       <r>   12.2103    1.0000 </r>
       <r>   13.4788    1.0000 </r>
       <r>   21.2373    0.0000 </r>
       <r>   24.0280    0.0000 </r>
       <r>   24.2431    0.0000 </r>
       <r>   33.2423    0.0000 </r>
      </set>
      <set comment="kpoint 10">
       <r>   -9.5102    1.0000 </r>
       <r>    7.5957    1.0000 </r>
       <r>   11.2768    1.0000 </r>
       <r>   12.6018    1.0000 </r>
       <r>   22.3253    0.0000 </r>
       <r>   25.2024    0.0000 </r>
       <r>   25.8440    0.0000 </r>
       <r>   32.2412    0.0000 </r>
      </set>
      <set comment="kpoint 11">
       <r>   -8.0530    1.0000 </r>
       <r>    4.2028    1.0000 </r>
       <r>   10.6405    1.0000 </r>
       <r>   11.6234    1.0000 </r>
       <r>   23.1711    0.0000 </r>
       <r>   25.6764    0.0000 </r>
       <r>   27.0853    0.0000 </r>
       <r>   32.2154    0.0000 </r>
      </set>
      <set comment="kpoint 12">
       <r>   -6.1627    1.0000 </r>
       <r>    0.9772    1.0000 </r>
       <r>   10.3534    1.0000 </r>
       <r>   10.7797    1.0000 </r>
       <r>   23.5364    0.0000 </r>
       <r>   25.5343    0.0000 </r>
       <r>   27.9787    0.0000 </r>
       <r>   32.7562    0.0000 </r>
      </set>
      <set comment="kpoint 13">
       <r>   -3.9404    1.0000 </r>
       <r>   -1.8700    1.0000 </r>
       <r>   10.1784    1.0000 </r>
       <r>   10.4209    1.0000 </r>
       <r>   23.7858    0.0000 </r>
       <r>   25.1577    0.0000 </r>
       <r>   28.4210    0.0000 </r>
       <r>   33.1800    0.0000 </r>
      </set>
      <set comment="kpoint 14">
       <r>   -4.6940    1.0000 </r>
       <r>   -0.9890    1.0000 </r>
       <r>    9.8786    1.0000 </r>
       <r>   10.8225    1.0000 </r>
       <r>   24.1799    0.0000 </r>
       <r>   24.7881    0.0000 </r>
       <r>   28.3130    0.0000 </r>
       <r>   33.3110    0.0000 </r>
      </set>
      <set comment="kpoint 15">
       <r>   -6.8394    1.0000 </r>
       <r>    2.0290    1.0000 </r>
       <r>    9.9160    1.0000 </r>
       <r>   11.5168    1.0000 </r>
       <r>   24.3970    0.0000 </r>
       <r>   24.6784    0.0000 </r>
       <r>   27.6416    0.0000 </r>
       <r>   33.2369    0.0000 </r>
      </set>
      <set comment="kpoint 16">
       <r>   -8.5883    1.0000 </r>
       <r>    5.3362    1.0000 </r>
       <r>   10.3057    1.0000 </r>
       <r>   12.4324    1.0000 </r>
       <r>   23.7342    0.0000 </r>
       <r>   24.9388    0.0000 </r>
       <r>   26.4720    0.0000 </r>
       <r>   33.2034    0.0000 </r>
      </set>
      <set comment="kpoint 17">
       <r>   -9.8962    1.0000 </r>
       <r>    8.7451    1.0000 </r>
       <r>   11.0357    1.0000 </r>
       <r>   13.4253    1.0000 </r>
       <r>   22.6679    0.0000 </r>
       <r>   24.4070    0.0000 </r>
       <r>   24.9852    0.0000 </r>
       <r>   33.6402    0.0000 </r>
      </set>
      <set comment="kpoint 18">
       <r>  -10.7480    1.0000 </r>
       <r>   11.7838    1.0000 </r>
       <r>   12.1739    1.0000 </r>
       <r>   14.1644    1.0000 </r>
       <r>   21.6679    0.0000 </r>
       <r>   23.0011    0.0000 </r>
       <r>   23.4229    0.0000 </r>
       <r>   34.5448    0.0000 </r>
      </set>
      <set comment="kpoint 19">
       <r>  -10.1277    1.0000 </r>
       <r>   11.0576    1.0000 </r>
       <r>   11.0576    1.0000 </r>
       <r>   12.2268    1.0000 </r>
       <r>   20.3432    0.0000 </r>
       <r>   25.7044    0.0000 </r>
       <r>   25.7044    0.0000 </r>
       <r>   30.6596    0.0000 </r>
      </set>
      <set comment="kpoint 20">
       <r>   -9.2785    1.0000 </r>
       <r>    8.7409    1.0000 </r>
       <r>   10.0794    1.0000 </r>
       <r>   11.4587    1.0000 </r>
       <r>   20.7133    0.0000 </r>
       <r>   27.1915    0.0000 </r>
       <r>   27.2287    0.0000 </r>
       <r>   28.9793    0.0000 </r>
      </set>
      <set comment="kpoint 21">
       <r>   -7.9760    1.0000 </r>
       <r>    5.6376    1.0000 </r>
       <r>    9.4297    1.0000 </r>
       <r>   10.4357    1.0000 </r>
       <r>   21.6862    0.0000 </r>
       <r>   27.7209    0.0000 </r>
       <r>   27.9713    0.0000 </r>
       <r>   29.4606    0.0000 </r>
      </set>
      <set comment="kpoint 22">
       <r>   -6.2368    1.0000 </r>
       <r>    2.4874    1.0000 </r>
       <r>    9.1674    1.0000 </r>
       <r>    9.3178    1.0000 </r>
       <r>   22.3018    0.0000 </r>
       <r>   27.9505    0.0000 </r>
       <r>   28.7153    0.0000 </r>
       <r>   30.7199    0.0000 </r>
      </set>
      <set comment="kpoint 23">
       <r>   -4.1140    1.0000 </r>
       <r>   -0.4400    1.0000 </r>
       <r>    8.3635    1.0000 </r>
       <r>    9.3042    1.0000 </r>
       <r>   22.6621    0.0000 </r>
       <r>   27.4564    0.0000 </r>
       <r>   29.8485    0.0000 </r>
       <r>   32.3038    0.0000 </r>
      </set>
      <set comment="kpoint 24">
       <r>   -3.3901    1.0000 </r>
       <r>   -1.2715    1.0000 </r>
       <r>    7.7038    1.0000 </r>
       <r>    9.8197    1.0000 </r>
       <r>   23.1844    0.0000 </r>
       <r>   26.7998    0.0000 </r>
       <r>   30.0923    0.0000 </r>
       <r>   33.7929    0.0000 </r>
      </set>
      <set comment="kpoint 25">
       <r>   -5.5715    1.0000 </r>
       <r>    1.5151    1.0000 </r>
       <r>    7.4061    1.0000 </r>
       <r>   10.6603    1.0000 </r>
       <r>   23.9707    0.0000 </r>
       <r>   26.0260    0.0000 </r>
       <r>   29.4948    0.0000 </r>
       <r>   33.7086    0.0000 </r>
      </set>
      <set comment="kpoint 26">
       <r>   -7.4460    1.0000 </r>
       <r>    4.6543    1.0000 </r>
       <r>    7.5077    1.0000 </r>
       <r>   11.7195    1.0000 </r>
       <r>   24.8548    0.0000 </r>
       <r>   24.9710    0.0000 </r>
       <r>   28.1572    0.0000 </r>
       <r>   32.9803    0.0000 </r>
      </set>
      <set comment="kpoint 27">
       <r>   -8.8953    1.0000 </r>
       <r>    7.6629    1.0000 </r>
       <r>    8.2391    1.0000 </r>
       <r>   12.7818    1.0000 </r>
       <r>   23.6472    0.0000 </r>
       <r>   25.3237    0.0000 </r>
       <r>   26.3829    0.0000 </r>
       <r>   32.8098    0.0000 </r>
      </set>
      <set comment="kpoint 28">
       <r>   -8.5868    1.0000 </r>
       <r>    9.0321    1.0000 </r>
       <r>    9.0321    1.0000 </r>
       <r>    9.6205    1.0000 </r>
       <r>   19.8290    0.0000 </r>
       <r>   26.3342    0.0000 </r>
       <r>   29.1345    0.0000 </r>
       <r>   29.1345    0.0000 </r>
      </set>
      <set comment="kpoint 29">
       <r>   -7.4412    1.0000 </r>
       <r>    6.8510    1.0000 </r>
       <r>    8.3110    1.0000 </r>
       <r>    8.6570    1.0000 </r>
       <r>   20.2329    0.0000 </r>
       <r>   25.0957    0.0000 </r>
       <r>   30.4535    0.0000 </r>
       <r>   30.7403    0.0000 </r>
      </set>
      <set comment="kpoint 30">
       <r>   -5.8585    1.0000 </r>
       <r>    4.0944    1.0000 </r>
       <r>    7.3776    1.0000 </r>
       <r>    7.9893    1.0000 </r>
       <r>   21.0468    0.0000 </r>
       <r>   25.6683    0.0000 </r>
       <r>   30.8331    0.0000 </r>
       <r>   31.9547    0.0000 </r>
      </set>
      <set comment="kpoint 31">
       <r>   -3.8788    1.0000 </r>
       <r>    1.3060    1.0000 </r>
       <r>    6.1251    1.0000 </r>
       <r>    8.0889    1.0000 </r>
       <r>   21.4880    0.0000 </r>
       <r>   28.0775    0.0000 </r>
       <r>   30.4446    0.0000 </r>
       <r>   32.6895    0.0000 </r>
      </set>
      <set comment="kpoint 32">
       <r>   -2.0686    1.0000 </r>
       <r>   -0.7649    1.0000 </r>
       <r>    5.1665    1.0000 </r>
       <r>    8.5973    1.0000 </r>
       <r>   21.9951    0.0000 </r>
       <r>   29.6119    0.0000 </r>
       <r>   31.2384    0.0000 </r>
       <r>   32.9620    0.0000 </r>
      </set>
      <set comment="kpoint 33">
       <r>   -3.9049    1.0000 </r>
       <r>    1.4349    1.0000 </r>
       <r>    4.6024    1.0000 </r>
       <r>    9.4650    1.0000 </r>
       <r>   22.8018    0.0000 </r>
       <r>   28.4242    0.0000 </r>
       <r>   32.0970    0.0000 </r>
       <r>   34.1783    0.0000 </r>
      </set>
      <set comment="kpoint 34">
       <r>   -5.8703    1.0000 </r>
       <r>    4.1330    1.0000 </r>
       <r>    4.7048    1.0000 </r>
       <r>   10.5827    1.0000 </r>
       <r>   23.8608    0.0000 </r>
       <r>   26.7943    0.0000 </r>
       <r>   30.3529    0.0000 </r>
       <r>   33.4673    0.0000 </r>
      </set>
      <set comment="kpoint 35">
       <r>   -6.4549    1.0000 </r>
       <r>    6.3816    1.0000 </r>
       <r>    7.4962    1.0000 </r>
       <r>    7.4962    1.0000 </r>
       <r>   19.4789    0.0000 </r>
       <r>   23.1289    0.0000 </r>
       <r>   32.4733    0.0000 </r>
       <r>   32.4733    0.0000 </r>
      </set>
      <set comment="kpoint 36">
       <r>   -5.0325    1.0000 </r>
       <r>    4.5268    1.0000 </r>
       <r>    6.3162    1.0000 </r>
       <r>    7.0776    1.0000 </r>
       <r>   19.9726    0.0000 </r>
       <r>   22.6275    0.0000 </r>
       <r>   33.4994    0.0000 </r>
       <r>   33.8334    0.0000 </r>
      </set>
      <set comment="kpoint 37">
       <r>   -3.2098    1.0000 </r>
       <r>    2.6300    1.0000 </r>
       <r>    4.4377    1.0000 </r>
       <r>    7.0885    1.0000 </r>
       <r>   20.5685    0.0000 </r>
       <r>   24.2944    0.0000 </r>
       <r>   33.4280    0.0000 </r>
       <r>   34.6733    0.0000 </r>
      </set>
      <set comment="kpoint 38">
       <r>   -1.1835    1.0000 </r>
       <r>    0.6934    1.0000 </r>
       <r>    2.8736    1.0000 </r>
       <r>    7.5257    1.0000 </r>
       <r>   21.0214    0.0000 </r>
       <r>   27.5549    0.0000 </r>
       <r>   32.4710    0.0000 </r>
       <r>   35.0085    0.0000 </r>
      </set>
      <set comment="kpoint 39">
       <r>   -1.9443    1.0000 </r>
       <r>    1.5162    1.0000 </r>
       <r>    2.2048    1.0000 </r>
       <r>    8.3500    1.0000 </r>
       <r>   21.7567    0.0000 </r>
       <r>   30.7607    0.0000 </r>
       <r>   31.4055    0.0000 </r>
       <r>   34.9255    0.0000 </r>
      </set>
      <set comment="kpoint 40">
       <r>   -3.7734    1.0000 </r>
       <r>    2.8486    1.0000 </r>
       <r>    6.5481    1.0000 </r>
       <r>    6.5481    1.0000 </r>
       <r>   19.4625    0.0000 </r>
       <r>   21.0771    0.0000 </r>
       <r>   35.2558    0.0000 </r>
       <r>   35.2558    0.0000 </r>
      </set>
      <set comment="kpoint 41">
       <r>   -2.1144    1.0000 </r>
       <r>    1.1845    1.0000 </r>
       <r>    5.4928    1.0000 </r>
       <r>    6.4476    1.0000 </r>
       <r>   20.0061    0.0000 </r>
       <r>   21.2709    0.0000 </r>
       <r>   35.6439    0.0000 </r>
       <r>   36.0199    0.0000 </r>
      </set>
      <set comment="kpoint 42">
       <r>   -0.2416    1.0000 </r>
       <r>   -0.0841    1.0000 </r>
       <r>    3.5535    1.0000 </r>
       <r>    6.7829    1.0000 </r>
       <r>   20.3897    0.0000 </r>
       <r>   23.8665    0.0000 </r>
       <r>   34.6492    0.0000 </r>
       <r>   36.0398    0.0000 </r>
      </set>
      <set comment="kpoint 43">
       <r>   -0.6224    1.0000 </r>
       <r>   -0.6224    1.0000 </r>
       <r>    6.2282    1.0000 </r>
       <r>    6.2282    1.0000 </r>
       <r>   19.9345    0.0000 </r>
       <r>   19.9345    0.0000 </r>
       <r>   36.4627    0.0000 </r>
       <r>   36.4627    0.0000 </r>
      </set>
      <set comment="kpoint 44">
       <r>   -9.8187    1.0000 </r>
       <r>    9.6526    1.0000 </r>
       <r>   10.1107    1.0000 </r>
       <r>   12.9418    1.0000 </r>
       <r>   21.5784    0.0000 </r>
       <r>   25.5165    0.0000 </r>
       <r>   25.7030    0.0000 </r>
       <r>   31.4938    0.0000 </r>
      </set>
      <set comment="kpoint 45">
       <r>   -8.6649    1.0000 </r>
       <r>    6.6627    1.0000 </r>
       <r>    9.1555    1.0000 </r>
       <r>   12.0390    1.0000 </r>
       <r>   22.6642    0.0000 </r>
       <r>   26.0677    0.0000 </r>
       <r>   27.3311    0.0000 </r>
       <r>   30.8774    0.0000 </r>
      </set>
      <set comment="kpoint 46">
       <r>   -7.0662    1.0000 </r>
       <r>    3.4085    1.0000 </r>
       <r>    8.7223    1.0000 </r>
       <r>   10.9817    1.0000 </r>
       <r>   23.5013    0.0000 </r>
       <r>   25.9729    0.0000 </r>
       <r>   28.6371    0.0000 </r>
       <r>   31.5678    0.0000 </r>
      </set>
      <set comment="kpoint 47">
       <r>   -5.0536    1.0000 </r>
       <r>    0.3321    1.0000 </r>
       <r>    8.6324    1.0000 </r>
       <r>   10.0908    1.0000 </r>
       <r>   23.7116    0.0000 </r>
       <r>   25.8250    0.0000 </r>
       <r>   29.5179    0.0000 </r>
       <r>   32.8499    0.0000 </r>
      </set>
      <set comment="kpoint 48">
       <r>   -3.1107    1.0000 </r>
       <r>   -1.9754    1.0000 </r>
       <r>    8.6993    1.0000 </r>
       <r>    9.6846    1.0000 </r>
       <r>   23.7096    0.0000 </r>
       <r>   25.7628    0.0000 </r>
       <r>   29.8305    0.0000 </r>
       <r>   33.5768    0.0000 </r>
      </set>
      <set comment="kpoint 49">
       <r>   -8.2812    1.0000 </r>
       <r>    7.6478    1.0000 </r>
       <r>    8.1786    1.0000 </r>
       <r>   10.5357    1.0000 </r>
       <r>   21.1162    0.0000 </r>
       <r>   26.8234    0.0000 </r>
       <r>   28.8250    0.0000 </r>
       <r>   29.1501    0.0000 </r>
      </set>
      <set comment="kpoint 50">
       <r>   -6.8378    1.0000 </r>
       <r>    4.9282    1.0000 </r>
       <r>    7.4412    1.0000 </r>
       <r>    9.4489    1.0000 </r>
       <r>   22.1869    0.0000 </r>
       <r>   26.4349    0.0000 </r>
       <r>   29.4403    0.0000 </r>
       <r>   30.7715    0.0000 </r>
      </set>
      <set comment="kpoint 51">
       <r>   -4.9750    1.0000 </r>
       <r>    1.9634    1.0000 </r>
       <r>    7.1273    1.0000 </r>
       <r>    8.4889    1.0000 </r>
       <r>   22.7699    0.0000 </r>
       <r>   27.1814    0.0000 </r>
       <r>   30.1950    0.0000 </r>
       <r>   31.8604    0.0000 </r>
      </set>
      <set comment="kpoint 52">
       <r>   -2.8298    1.0000 </r>
       <r>   -0.7128    1.0000 </r>
       <r>    6.6681    1.0000 </r>
       <r>    8.3145    1.0000 </r>
       <r>   23.0968    0.0000 </r>
       <r>   27.3680    0.0000 </r>
       <r>   32.0046    0.0000 </r>
       <r>   32.5175    0.0000 </r>
      </set>
      <set comment="kpoint 53">
       <r>   -3.5541    1.0000 </r>
       <r>    0.1398    1.0000 </r>
       <r>    6.1728    1.0000 </r>
       <r>    8.9043    1.0000 </r>
       <r>   23.6281    0.0000 </r>
       <r>   26.8285    0.0000 </r>
       <r>   32.0144    0.0000 </r>
       <r>   33.4139    0.0000 </r>
      </set>
      <set comment="kpoint 54">
       <r>   -5.6450    1.0000 </r>
       <r>    3.0088    1.0000 </r>
       <r>    5.9825    1.0000 </r>
       <r>    9.9004    1.0000 </r>
       <r>   24.4179    0.0000 </r>
       <r>   25.7730    0.0000 </r>
       <r>   31.0232    0.0000 </r>
       <r>   31.8431    0.0000 </r>
      </set>
      <set comment="kpoint 55">
       <r>   -7.3698    1.0000 </r>
       <r>    5.8280    1.0000 </r>
       <r>    6.4292    1.0000 </r>
       <r>   11.0634    1.0000 </r>
       <r>   24.0337    0.0000 </r>
       <r>   25.5487    0.0000 </r>
       <r>   29.2944    0.0000 </r>
       <r>   30.8771    0.0000 </r>
      </set>
      <set comment="kpoint 56">
       <r>   -6.1564    1.0000 </r>
       <r>    5.7253    1.0000 </r>
       <r>    6.7031    1.0000 </r>
       <r>    7.7291    1.0000 </r>
       <r>   20.7731    0.0000 </r>
       <r>   24.1338    0.0000 </r>
       <r>   31.3572    0.0000 </r>
       <r>   32.5514    0.0000 </r>
      </set>
      <set comment="kpoint 57">
       <r>   -4.4512    1.0000 </r>
       <r>    3.5392    1.0000 </r>
       <r>    5.6186    1.0000 </r>
       <r>    6.9332    1.0000 </r>
       <r>   21.7581    0.0000 </r>
       <r>   24.9072    0.0000 </r>
       <r>   31.4486    0.0000 </r>
       <r>   33.8650    0.0000 </r>
      </set>
      <set comment="kpoint 58">
       <r>   -2.4052    1.0000 </r>
       <r>    1.0679    1.0000 </r>
       <r>    4.4701    1.0000 </r>
       <r>    7.0087    1.0000 </r>
       <r>   22.2039    0.0000 </r>
       <r>   27.5044    0.0000 </r>
       <r>   31.1271    0.0000 </r>
       <r>   34.2928    0.0000 </r>
      </set>
      <set comment="kpoint 59">
       <r>   -1.7854    1.0000 </r>
       <r>    0.4484    1.0000 </r>
       <r>    3.5971    1.0000 </r>
       <r>    7.6493    1.0000 </r>
       <r>   22.7569    0.0000 </r>
       <r>   29.0662    0.0000 </r>
       <r>   32.0605    0.0000 </r>
       <r>   33.7031    0.0000 </r>
      </set>
      <set comment="kpoint 60">
       <r>   -3.8279    1.0000 </r>
       <r>    2.7742    1.0000 </r>
       <r>    3.3922    1.0000 </r>
       <r>    8.6733    1.0000 </r>
       <r>   23.5992    0.0000 </r>
       <r>   27.6422    0.0000 </r>
       <r>   32.5699    0.0000 </r>
       <r>   33.3788    0.0000 </r>
      </set>
      <set comment="kpoint 61">
       <r>   -3.4901    1.0000 </r>
       <r>    2.9402    1.0000 </r>
       <r>    5.8031    1.0000 </r>
       <r>    6.0292    1.0000 </r>
       <r>   20.7399    0.0000 </r>
       <r>   22.2323    0.0000 </r>
       <r>   34.0339    0.0000 </r>
       <r>   35.2253    0.0000 </r>
      </set>
      <set comment="kpoint 62">
       <r>   -1.5909    1.0000 </r>
       <r>    1.4690    1.0000 </r>
       <r>    3.8757    1.0000 </r>
       <r>    6.0589    1.0000 </r>
       <r>   21.5132    0.0000 </r>
       <r>   24.0415    0.0000 </r>
       <r>   33.7190    0.0000 </r>
       <r>   35.3596    0.0000 </r>
      </set>
      <set comment="kpoint 63">
       <r>   -0.2155    1.0000 </r>
       <r>    0.6819    1.0000 </r>
       <r>    2.1365    1.0000 </r>
       <r>    6.6548    1.0000 </r>
       <r>   21.9981    0.0000 </r>
       <r>   27.4251    0.0000 </r>
       <r>   32.3801    0.0000 </r>
       <r>   34.5089    0.0000 </r>
      </set>
      <set comment="kpoint 64">
       <r>   -0.3790    1.0000 </r>
       <r>   -0.3790    1.0000 </r>
       <r>    5.5439    1.0000 </r>
       <r>    5.5439    1.0000 </r>
       <r>   21.1701    0.0000 </r>
       <r>   21.1701    0.0000 </r>
       <r>   35.7909    0.0000 </r>
       <r>   35.7909    0.0000 </r>
      </set>
      <set comment="kpoint 65">
       <r>   -5.2695    1.0000 </r>
       <r>    4.3001    1.0000 </r>
       <r>    5.0412    1.0000 </r>
       <r>    8.2310    1.0000 </r>
       <r>   23.8766    0.0000 </r>
       <r>   25.5251    0.0000 </r>
       <r>   29.9971    0.0000 </r>
       <r>   32.8004    0.0000 </r>
      </set>
      <set comment="kpoint 66">
       <r>   -3.3197    1.0000 </r>
       <r>    1.8529    1.0000 </r>
       <r>    4.7577    1.0000 </r>
       <r>    7.0979    1.0000 </r>
       <r>   24.4594    0.0000 </r>
       <r>   26.3769    0.0000 </r>
       <r>   30.8007    0.0000 </r>
       <r>   33.9983    0.0000 </r>
      </set>
      <set comment="kpoint 67">
       <r>   -1.5526    1.0000 </r>
       <r>   -0.1875    1.0000 </r>
       <r>    4.8620    1.0000 </r>
       <r>    6.5861    1.0000 </r>
       <r>   24.3336    0.0000 </r>
       <r>   27.1271    0.0000 </r>
       <r>   32.6664    0.0000 </r>
       <r>   32.8456    0.0000 </r>
      </set>
      <set comment="kpoint 68">
       <r>   -2.6599    1.0000 </r>
       <r>    2.7936    1.0000 </r>
       <r>    4.2270    1.0000 </r>
       <r>    5.3836    1.0000 </r>
       <r>   23.8497    0.0000 </r>
       <r>   24.7735    0.0000 </r>
       <r>   31.3320    0.0000 </r>
       <r>   34.7967    0.0000 </r>
      </set>
      <set comment="kpoint 69">
       <r>   -0.6921    1.0000 </r>
       <r>    1.1764    1.0000 </r>
       <r>    3.1911    1.0000 </r>
       <r>    5.0584    1.0000 </r>
       <r>   24.4412    0.0000 </r>
       <r>   27.0556    0.0000 </r>
       <r>   31.1469    0.0000 </r>
       <r>   33.0944    0.0000 </r>
      </set>
      <set comment="kpoint 70">
       <r>   -1.3835    1.0000 </r>
       <r>    1.7993    1.0000 </r>
       <r>    2.7170    1.0000 </r>
       <r>    5.8265    1.0000 </r>
       <r>   24.7965    0.0000 </r>
       <r>   27.5514    0.0000 </r>
       <r>   31.4033    0.0000 </r>
       <r>   32.5247    0.0000 </r>
      </set>
      <set comment="kpoint 71">
       <r>    0.2716    1.0000 </r>
       <r>    0.2716    1.0000 </r>
       <r>    4.1449    1.0000 </r>
       <r>    4.1449    1.0000 </r>
       <r>   24.1311    0.0000 </r>
       <r>   24.1311    0.0000 </r>
       <r>   33.4580    0.0000 </r>
       <r>   33.4580    0.0000 </r>
      </set>
      <set comment="kpoint 72">
       <r>    0.7935    1.0000 </r>
       <r>    0.7935    1.0000 </r>
       <r>    3.2971    1.0000 </r>
       <r>    3.2971    1.0000 </r>
       <r>   26.5411    0.0000 </r>
       <r>   26.5411    0.0000 </r>
       <r>   31.1495    0.0000 </r>
       <r>   31.1495    0.0000 </r>
      </set>
     </set>
    </set>
   </array>
  </eigenvalues>
  <separator name="orbital magnetization" >
   <v name="MAGDIPOLOUT">      0.00000000      0.00000000      0.00000000</v>
  </separator>
  <dos>
   <i name="efermi">     14.65679722 </i>
   <total>
    <array>
     <dimension dim="1">gridpoints</dimension>
     <dimension dim="2">spin</dimension>
     <field>energy</field>
     <field>total</field>
     <field>integrated</field>
     <set>
      <set comment="spin 1">
       <r>   -13.7609     0.0000     0.0000 </r>
       <r>   -13.5855     0.0000     0.0000 </r>
       <r>   -13.4101     0.0000     0.0000 </r>
       <r>   -13.2347     0.0000     0.0000 </r>
       <r>   -13.0594     0.0000     0.0000 </r>
       <r>   -12.8840     0.0000     0.0000 </r>
       <r>   -12.7086     0.0000     0.0000 </r>
       <r>   -12.5332     0.0000     0.0000 </r>
       <r>   -12.3578     0.0000     0.0000 </r>
       <r>   -12.1824     0.0000     0.0000 </r>
       <r>   -12.0071     0.0000     0.0000 </r>
       <r>   -11.8317     0.0000     0.0000 </r>
       <r>   -11.6563     0.0000     0.0000 </r>
       <r>   -11.4809     0.0000     0.0000 </r>
       <r>   -11.3055     0.0033     0.0001 </r>
       <r>   -11.1301     0.0434     0.0037 </r>
       <r>   -10.9548     0.0463     0.0110 </r>
       <r>   -10.7794     0.0607     0.0203 </r>
       <r>   -10.6040     0.0722     0.0321 </r>
       <r>   -10.4286     0.0764     0.0451 </r>
       <r>   -10.2532     0.0847     0.0592 </r>
       <r>   -10.0778     0.0933     0.0748 </r>
       <r>    -9.9024     0.1023     0.0920 </r>
       <r>    -9.7271     0.1062     0.1102 </r>
       <r>    -9.5517     0.1112     0.1293 </r>
       <r>    -9.3763     0.1162     0.1492 </r>
       <r>    -9.2009     0.1222     0.1701 </r>
       <r>    -9.0255     0.1286     0.1921 </r>
       <r>    -8.8501     0.1349     0.2152 </r>
       <r>    -8.6748     0.1388     0.2392 </r>
       <r>    -8.4994     0.1426     0.2639 </r>
       <r>    -8.3240     0.1469     0.2893 </r>
       <r>    -8.1486     0.1514     0.3154 </r>
       <r>    -7.9732     0.1559     0.3424 </r>
       <r>    -7.7978     0.1608     0.3701 </r>
       <r>    -7.6225     0.1659     0.3988 </r>
       <r>    -7.4471     0.1710     0.4283 </r>
       <r>    -7.2717     0.1743     0.4586 </r>
       <r>    -7.0963     0.1778     0.4894 </r>
       <r>    -6.9209     0.1813     0.5209 </r>
       <r>    -6.7455     0.1854     0.5531 </r>
       <r>    -6.5701     0.1895     0.5859 </r>
       <r>    -6.3948     0.1936     0.6195 </r>
       <r>    -6.2194     0.1978     0.6539 </r>
       <r>    -6.0440     0.2022     0.6889 </r>
       <r>    -5.8686     0.2067     0.7248 </r>
       <r>    -5.6932     0.2107     0.7614 </r>
       <r>    -5.5178     0.2144     0.7987 </r>
       <r>    -5.3425     0.2185     0.8366 </r>
       <r>    -5.1671     0.2227     0.8753 </r>
       <r>    -4.9917     0.2272     0.9148 </r>
       <r>    -4.8163     0.2327     0.9551 </r>
       <r>    -4.6409     0.2393     0.9965 </r>
       <r>    -4.4655     0.2488     1.0392 </r>
       <r>    -4.2902     0.2621     1.0840 </r>
       <r>    -4.1148     0.2790     1.1314 </r>
       <r>    -3.9394     0.3042     1.1823 </r>
       <r>    -3.7640     0.2856     1.2338 </r>
       <r>    -3.5886     0.2803     1.2833 </r>
       <r>    -3.4132     0.2840     1.3325 </r>
       <r>    -3.2379     0.2939     1.3835 </r>
       <r>    -3.0625     0.2809     1.4342 </r>
       <r>    -2.8871     0.2501     1.4810 </r>
       <r>    -2.7117     0.2328     1.5226 </r>
       <r>    -2.5363     0.2300     1.5632 </r>
       <r>    -2.3609     0.2319     1.6036 </r>
       <r>    -2.1855     0.2325     1.6444 </r>
       <r>    -2.0102     0.2326     1.6850 </r>
       <r>    -1.8348     0.2849     1.7298 </r>
       <r>    -1.6594     0.2862     1.7799 </r>
       <r>    -1.4840     0.2958     1.8308 </r>
       <r>    -1.3086     0.2966     1.8830 </r>
       <r>    -1.1332     0.2932     1.9346 </r>
       <r>    -0.9579     0.2961     1.9862 </r>
       <r>    -0.7825     0.3019     2.0386 </r>
       <r>    -0.6071     0.2797     2.0900 </r>
       <r>    -0.4317     0.2580     2.1370 </r>
       <r>    -0.2563     0.2403     2.1807 </r>
       <r>    -0.0809     0.2402     2.2226 </r>
       <r>     0.0944     0.2479     2.2653 </r>
       <r>     0.2698     0.2637     2.3100 </r>
       <r>     0.4452     0.2988     2.3589 </r>
       <r>     0.6206     0.4164     2.4206 </r>
       <r>     0.7960     0.4875     2.5030 </r>
       <r>     0.9714     0.4852     2.5886 </r>
       <r>     1.1467     0.4616     2.6719 </r>
       <r>     1.3221     0.3825     2.7463 </r>
       <r>     1.4975     0.3332     2.8080 </r>
       <r>     1.6729     0.3024     2.8636 </r>
       <r>     1.8483     0.3070     2.9153 </r>
       <r>     2.0237     0.2830     2.9674 </r>
       <r>     2.1991     0.2631     3.0149 </r>
       <r>     2.3744     0.2691     3.0615 </r>
       <r>     2.5498     0.2820     3.1097 </r>
       <r>     2.7252     0.3016     3.1608 </r>
       <r>     2.9006     0.3450     3.2169 </r>
       <r>     3.0760     0.4225     3.2842 </r>
       <r>     3.2514     0.4289     3.3632 </r>
       <r>     3.4267     0.4221     3.4369 </r>
       <r>     3.6021     0.3966     3.5093 </r>
       <r>     3.7775     0.4002     3.5791 </r>
       <r>     3.9529     0.4311     3.6510 </r>
       <r>     4.1283     0.4254     3.7274 </r>
       <r>     4.3037     0.4140     3.7998 </r>
       <r>     4.4790     0.4333     3.8740 </r>
       <r>     4.6544     0.4493     3.9518 </r>
       <r>     4.8298     0.4519     4.0313 </r>
       <r>     5.0052     0.4474     4.1102 </r>
       <r>     5.1806     0.4500     4.1888 </r>
       <r>     5.3560     0.4547     4.2681 </r>
       <r>     5.5313     0.5320     4.3501 </r>
       <r>     5.7067     0.5179     4.4415 </r>
       <r>     5.8821     0.5654     4.5358 </r>
       <r>     6.0575     0.5938     4.6411 </r>
       <r>     6.2329     0.6300     4.7477 </r>
       <r>     6.4083     0.6774     4.8626 </r>
       <r>     6.5837     0.6206     4.9765 </r>
       <r>     6.7590     0.6142     5.0848 </r>
       <r>     6.9344     0.6099     5.1920 </r>
       <r>     7.1098     0.6090     5.2989 </r>
       <r>     7.2852     0.6088     5.4057 </r>
       <r>     7.4606     0.6070     5.5124 </r>
       <r>     7.6360     0.5943     5.6178 </r>
       <r>     7.8113     0.5834     5.7210 </r>
       <r>     7.9867     0.5732     5.8225 </r>
       <r>     8.1621     0.5681     5.9224 </r>
       <r>     8.3375     0.5769     6.0227 </r>
       <r>     8.5129     0.5740     6.1236 </r>
       <r>     8.6883     0.5728     6.2241 </r>
       <r>     8.8636     0.5631     6.3239 </r>
       <r>     9.0390     0.5534     6.4218 </r>
       <r>     9.2144     0.5436     6.5181 </r>
       <r>     9.3898     0.5299     6.6122 </r>
       <r>     9.5652     0.5201     6.7042 </r>
       <r>     9.7406     0.5142     6.7948 </r>
       <r>     9.9159     0.5098     6.8846 </r>
       <r>    10.0913     0.5194     6.9744 </r>
       <r>    10.2667     0.5201     7.0663 </r>
       <r>    10.4421     0.4993     7.1556 </r>
       <r>    10.6175     0.4863     7.2422 </r>
       <r>    10.7929     0.4646     7.3257 </r>
       <r>    10.9683     0.3830     7.4010 </r>
       <r>    11.1436     0.3425     7.4639 </r>
       <r>    11.3190     0.3126     7.5214 </r>
       <r>    11.4944     0.2800     7.5734 </r>
       <r>    11.6698     0.2577     7.6202 </r>
       <r>    11.8452     0.2402     7.6639 </r>
       <r>    12.0206     0.2229     7.7045 </r>
       <r>    12.1959     0.2080     7.7421 </r>
       <r>    12.3713     0.1938     7.7776 </r>
       <r>    12.5467     0.1785     7.8103 </r>
       <r>    12.7221     0.1641     7.8403 </r>
       <r>    12.8975     0.1503     7.8679 </r>
       <r>    13.0729     0.1360     7.8930 </r>
       <r>    13.2482     0.1206     7.9155 </r>
       <r>    13.4236     0.1077     7.9355 </r>
       <r>    13.5990     0.0907     7.9529 </r>
       <r>    13.7744     0.0764     7.9675 </r>
       <r>    13.9498     0.0666     7.9800 </r>
       <r>    14.1252     0.1094     7.9939 </r>
       <r>    14.3005     0.0127     7.9988 </r>
       <r>    14.4759     0.0016     7.9999 </r>
       <r>    14.6513     0.0000     8.0000 </r>
       <r>    14.8267     0.0000     8.0000 </r>
       <r>    15.0021     0.0000     8.0000 </r>
       <r>    15.1775     0.0000     8.0000 </r>
       <r>    15.3529     0.0000     8.0000 </r>
       <r>    15.5282     0.0000     8.0000 </r>
       <r>    15.7036     0.0000     8.0000 </r>
       <r>    15.8790     0.0000     8.0000 </r>
       <r>    16.0544     0.0000     8.0000 </r>
       <r>    16.2298     0.0000     8.0000 </r>
       <r>    16.4052     0.0000     8.0000 </r>
       <r>    16.5805     0.0000     8.0000 </r>
       <r>    16.7559     0.0000     8.0000 </r>
       <r>    16.9313     0.0000     8.0000 </r>
       <r>    17.1067     0.0000     8.0000 </r>
       <r>    17.2821     0.0000     8.0000 </r>
       <r>    17.4575     0.0000     8.0000 </r>
       <r>    17.6328     0.0000     8.0000 </r>
       <r>    17.8082     0.0000     8.0000 </r>
       <r>    17.9836     0.0000     8.0000 </r>
       <r>    18.1590     0.0000     8.0000 </r>
       <r>    18.3344     0.0000     8.0000 </r>
       <r>    18.5098     0.0000     8.0000 </r>
       <r>    18.6851     0.0000     8.0000 </r>
       <r>    18.8605     0.0000     8.0000 </r>
       <r>    19.0359     0.0000     8.0000 </r>
       <r>    19.2113     0.0000     8.0000 </r>
       <r>    19.3867     0.0000     8.0000 </r>
       <r>    19.5621     0.0121     8.0005 </r>
       <r>    19.7375     0.0459     8.0054 </r>
       <r>    19.9128     0.0932     8.0174 </r>
       <r>    20.0882     0.1330     8.0375 </r>
       <r>    20.2636     0.1675     8.0639 </r>
       <r>    20.4390     0.2015     8.0963 </r>
       <r>    20.6144     0.2344     8.1345 </r>
       <r>    20.7898     0.2698     8.1787 </r>
       <r>    20.9651     0.3122     8.2295 </r>
       <r>    21.1405     0.3629     8.2887 </r>
       <r>    21.3159     0.4084     8.3567 </r>
       <r>    21.4913     0.4233     8.4301 </r>
       <r>    21.6667     0.4134     8.5038 </r>
       <r>    21.8421     0.4323     8.5779 </r>
       <r>    22.0174     0.4520     8.6554 </r>
       <r>    22.1928     0.4723     8.7365 </r>
       <r>    22.3682     0.4939     8.8212 </r>
       <r>    22.5436     0.5193     8.9100 </r>
       <r>    22.7190     0.5488     9.0036 </r>
       <r>    22.8944     0.5853     9.1029 </r>
       <r>    23.0697     0.6335     9.2096 </r>
       <r>    23.2451     0.7172     9.3279 </r>
       <r>    23.4205     0.7927     9.4604 </r>
       <r>    23.5959     0.8662     9.6056 </r>
       <r>    23.7713     0.9242     9.7598 </r>
       <r>    23.9467     0.8827     9.9202 </r>
       <r>    24.1221     0.8196    10.0696 </r>
       <r>    24.2974     0.6000    10.1979 </r>
       <r>    24.4728     0.5315    10.2925 </r>
       <r>    24.6482     0.4052    10.3729 </r>
       <r>    24.8236     0.3979    10.4415 </r>
       <r>    24.9990     0.4703    10.5178 </r>
       <r>    25.1744     0.5384    10.6067 </r>
       <r>    25.3497     0.5663    10.7040 </r>
       <r>    25.5251     0.5815    10.8047 </r>
       <r>    25.7005     0.6545    10.9147 </r>
       <r>    25.8759     0.7314    11.0320 </r>
       <r>    26.0513     0.6395    11.1530 </r>
       <r>    26.2267     0.6345    11.2648 </r>
       <r>    26.4020     0.6259    11.3753 </r>
       <r>    26.5774     0.6135    11.4840 </r>
       <r>    26.7528     0.6201    11.5918 </r>
       <r>    26.9282     0.6481    11.7029 </r>
       <r>    27.1036     0.6955    11.8194 </r>
       <r>    27.2790     0.5697    11.9310 </r>
       <r>    27.4543     0.4685    12.0204 </r>
       <r>    27.6297     0.4278    12.0989 </r>
       <r>    27.8051     0.3985    12.1712 </r>
       <r>    27.9805     0.3784    12.2392 </r>
       <r>    28.1559     0.3711    12.3048 </r>
       <r>    28.3313     0.3572    12.3689 </r>
       <r>    28.5067     0.3133    12.4267 </r>
       <r>    28.6820     0.3012    12.4805 </r>
       <r>    28.8574     0.2896    12.5323 </r>
       <r>    29.0328     0.3294    12.5838 </r>
       <r>    29.2082     0.3250    12.6417 </r>
       <r>    29.3836     0.3372    12.6999 </r>
       <r>    29.5590     0.3360    12.7591 </r>
       <r>    29.7343     0.3334    12.8178 </r>
       <r>    29.9097     0.3324    12.8761 </r>
       <r>    30.0851     0.3436    12.9352 </r>
       <r>    30.2605     0.3645    12.9972 </r>
       <r>    30.4359     0.3987    13.0639 </r>
       <r>    30.6113     0.4397    13.1375 </r>
       <r>    30.7866     0.4773    13.2179 </r>
       <r>    30.9620     0.5528    13.3082 </r>
       <r>    31.1374     0.6550    13.4136 </r>
       <r>    31.3128     0.7121    13.5532 </r>
       <r>    31.4882     0.6701    13.6695 </r>
       <r>    31.6636     0.7249    13.7920 </r>
       <r>    31.8390     0.7689    13.9231 </r>
       <r>    32.0143     0.8341    14.0613 </r>
       <r>    32.1897     0.7223    14.2015 </r>
       <r>    32.3651     0.6080    14.3170 </r>
       <r>    32.5405     0.5942    14.4202 </r>
       <r>    32.7159     0.6888    14.5324 </r>
       <r>    32.8913     0.8436    14.6651 </r>
       <r>    33.0666     1.0318    14.8312 </r>
       <r>    33.2420     0.9480    15.0095 </r>
       <r>    33.4174     0.8329    15.1632 </r>
       <r>    33.5928     0.7256    15.3024 </r>
       <r>    33.7682     0.5435    15.4133 </r>
       <r>    33.9436     0.4311    15.4977 </r>
       <r>    34.1189     0.3789    15.5683 </r>
       <r>    34.2943     0.3424    15.6315 </r>
       <r>    34.4697     0.3075    15.6884 </r>
       <r>    34.6451     0.2785    15.7397 </r>
       <r>    34.8205     0.2573    15.7866 </r>
       <r>    34.9959     0.2227    15.8299 </r>
       <r>    35.1712     0.1919    15.8658 </r>
       <r>    35.3466     0.1657    15.8966 </r>
       <r>    35.5220     0.1507    15.9244 </r>
       <r>    35.6974     0.1392    15.9496 </r>
       <r>    35.8728     0.1163    15.9720 </r>
       <r>    36.0482     0.0599    15.9917 </r>
       <r>    36.2236     0.0199    15.9984 </r>
       <r>    36.3989     0.0014    16.0000 </r>
       <r>    36.5743     0.0000    16.0000 </r>
       <r>    36.7497     0.0000    16.0000 </r>
       <r>    36.9251     0.0000    16.0000 </r>
       <r>    37.1005     0.0000    16.0000 </r>
       <r>    37.2759     0.0000    16.0000 </r>
       <r>    37.4512     0.0000    16.0000 </r>
       <r>    37.6266     0.0000    16.0000 </r>
       <r>    37.8020     0.0000    16.0000 </r>
       <r>    37.9774     0.0000    16.0000 </r>
       <r>    38.1528     0.0000    16.0000 </r>
       <r>    38.3282     0.0000    16.0000 </r>
       <r>    38.5035     0.0000    16.0000 </r>
       <r>    38.6789     0.0000    16.0000 </r>
       <r>    38.8543     0.0000    16.0000 </r>
      </set>
     </set>
    </array>
   </total>
  </dos>
 </calculation>
 <structure name="finalpos" >
  <crystal>
   <varray name="basis" >
    <v>      -1.61399000       0.00000000       1.61399000 </v>
    <v>       0.00000000       1.61399000       1.61399000 </v>
    <v>      -1.61399000       1.61399000       0.00000000 </v>
   </varray>
   <i name="volume">      8.40877079 </i>
   <varray name="rec_basis" >
    <v>      -0.30979126      -0.30979126       0.30979126 </v>
    <v>       0.30979126       0.30979126       0.30979126 </v>
    <v>      -0.30979126       0.30979126      -0.30979126 </v>
   </varray>
  </crystal>
  <varray name="positions" >
   <v>       0.87500000       0.87500000       0.87500000 </v>
   <v>       0.12500000       0.12500000       0.12500000 </v>
  </varray>
 </structure>
</modeling>
