unknown system                          
           1
    -1.613990    0.000000    1.613990
     0.000000    1.613990    1.613990
    -1.613990    1.613990    0.000000
   C 
   2
Direct configuration=     1
   0.87500000  0.87500000  0.87500000
   0.12500000  0.12500000  0.12500000
