TACC: Starting up job 4357377
TACC: Setting up parallel environment for MVAPICH2+mpispawn.
TACC: Starting parallel tasks...
 running on    4 total cores
 distrk:  each k-point on    4 cores,    1 groups
 distr:  one band on    1 cores,    4 groups
 using from now: INCAR     
 vasp.5.3.3 18Dez12 (build Oct 01 2014 18:44:37) complex                        
  
 POSCAR found type information on POSCAR  C 
 POSCAR found :  1 types and       2 ions
 WARNING: for PREC=h ENMAX is automatically increase by 25 %
        this was not the case for versions prior to vasp.4.4
 LDA part: xc-table for Pade appr. of Perdew
 found WAVECAR, reading the header
 POSCAR, INCAR and KPOINTS ok, starting setup
 FFT: planning ...
 reading WAVECAR
 the WAVECAR file was read sucessfully
 initial charge from wavefunction
 entering main loop
       N       E                     dE             d eps       ncg     rms          rms(c)
DAV:   1    -0.164840413334E+02   -0.16484E+02   -0.12684E-08   576   0.138E-03    0.783E-05
DAV:   2    -0.164840413332E+02    0.23738E-09   -0.26146E-10   576   0.214E-04    0.431E-05
DAV:   3    -0.164840413337E+02   -0.44110E-09   -0.83464E-11   576   0.897E-05    0.853E-06
DAV:   4    -0.164840413338E+02   -0.11983E-09   -0.23888E-12   576   0.220E-05    0.654E-06
DAV:   5    -0.164840413339E+02   -0.12960E-09   -0.38024E-13   576   0.882E-06
 Error: You must specify num_wann
Error: examine the output/error file for details
[c557-202.stampede.tacc.utexas.edu:mpispawn_0][readline] Unexpected End-Of-File on file descriptor 7. MPI process died?
[c557-202.stampede.tacc.utexas.edu:mpispawn_0][mtpmi_processops] Error while reading PMI socket. MPI process died?
[c557-202.stampede.tacc.utexas.edu:mpispawn_0][error_sighandler] Caught error: Segmentation fault (signal 11)
bash: line 1: 37329 Segmentation fault      (core dumped) /usr/bin/env LD_LIBRARY_PATH=/opt/apps/intel13/mvapich2/1.9/lib:/opt/apps/intel13/mvapich2/1.9/lib/shared:/opt/apps/intel/13/composer_xe_2013.2.146/tbb/lib/intel64:/opt/apps/intel/13/composer_xe_2013.2.146/compiler/lib/intel64:/opt/intel/mic/coi/host-linux-release/lib:/opt/intel/mic/myo/lib:/opt/apps/intel/13/composer_xe_2013.2.146/mpirt/lib/intel64:/opt/apps/intel/13/composer_xe_2013.2.146/ipp/../compiler/lib/intel64:/opt/apps/intel/13/composer_xe_2013.2.146/ipp/lib/intel64:/opt/apps/intel/13/composer_xe_2013.2.146/compiler/lib/intel64:/opt/apps/intel/13/composer_xe_2013.2.146/mkl/lib/intel64:/opt/apps/intel/13/composer_xe_2013.2.146/tbb/lib/intel64 MPISPAWN_MPIRUN_MPD=0 USE_LINEAR_SSH=1 MPISPAWN_MPIRUN_HOST=c557-202.stampede.tacc.utexas.edu MPISPAWN_MPIRUN_HOSTIP=129.114.90.154 MPIRUN_RSH_LAUNCH=1 MPISPAWN_CHECKIN_PORT=34673 MPISPAWN_MPIRUN_PORT=34673 MPISPAWN_NNODES=1 MPISPAWN_GLOBAL_NPROCS=4 MPISPAWN_MPIRUN_ID=37275 MPISPAWN_ARGC=1 MPDMAN_KVS_TEMPLATE=kvs_350_c557-202.stampede.tacc.utexas.edu_37275 MPISPAWN_LOCAL_NPROCS=4 MPISPAWN_ARGV_0='/work/03192/priyaj/vasp/vasp.5.3_ncl/vasp' MPISPAWN_ARGC=1 MPISPAWN_GENERIC_ENV_COUNT=113 MPISPAWN_GENERIC_NAME_0=TACC_ENVLEN MPISPAWN_GENERIC_VALUE_0=7384 MPISPAWN_GENERIC_NAME_1=SLURMD_NODENAME MPISPAWN_GENERIC_VALUE_1="c557-202" MPISPAWN_GENERIC_NAME_2=STOCKYARD MPISPAWN_GENERIC_VALUE_2="/work/03192/priyaj" MPISPAWN_GENERIC_NAME_3=SLURM_JOBID MPISPAWN_GENERIC_VALUE_3="4357377" MPISPAWN_GENERIC_NAME_4=_ModuleTable001_ MPISPAWN_GENERIC_VALUE_4="X01vZHVsZVRhYmxlXz17WyJhY3RpdmVTaXplIl09OCxiYXNlTXBhdGhBPXsiL29wdC9hcHBzL3hzZWRlL21vZHVsZWZpbGVzIiwiL29wdC9hcHBzL21vZHVsZWZpbGVzIiwiL29wdC9tb2R1bGVmaWxlcyIsfSxbImNfcmVidWlsZFRpbWUiXT1mYWxzZSxbImNfc2hvcnRUaW1lIl09ZmFsc2UsZmFtaWx5PXtbIk1QSSJdPSJtdmFwaWNoMiIsWyJjb21waWxlciJdPSJpbnRlbCIsfSxpbmFjdGl2ZT17fSxtVD17TGludXg9e1siRk4iXT0iL29wdC9tb2R1bGVmaWxlcy9MaW51eCIsWyJkZWZhdWx0Il09MCxbImZ1bGxOYW1lIl09IkxpbnV4IixbImxvYWRPcmRlciJdPTIscHJvcFQ9e30sWyJzaG9ydCJdPSJMaW51eCIsWyJzdGF0dXMiXT0iYWN0aXZlIix9LFRBQ0M9e1siRk4iXT0i" MPISPAWN_GENERIC_NAME_5=TACC_SYSTEM MPISPAWN_GENERIC_VALUE_5="stampede" MPISPAWN_GENERIC_NAME_6=WORK MPISPAWN_GENERIC_VALUE_6="/work/03192/priyaj" MPISPAWN_GENERIC_NAME_7=ICC_LIB MPISPAWN_GENERIC_VALUE_7="/opt/apps/intel/13/composer_xe_2013.2.146/compiler/lib/intel64" MPISPAWN_GENERIC_NAME_8=SLURM_GTIDS MPISPAWN_GENERIC_VALUE_8="0" MPISPAWN_GENERIC_NAME_9=MIC_LD_LIBRARY_PATH MPISPAWN_GENERIC_VALUE_9="/opt/apps/intel/13/composer_xe_2013.2.146/tbb/lib/mic:/opt/apps/intel/13/composer_xe_2013.2.146/compiler/lib/mic:/opt/intel/mic/coi/device-linux-release/lib:/opt/intel/mic/myo/lib:/opt/apps/intel/13/composer_xe_2013.2.146/tbb/lib/mic:/opt/apps/intel/13/composer_xe_2013.2.146/mkl/lib/mic" MPISPAWN_GENERIC_NAME_10=SLURM_PRIO_PROCESS MPISPAWN_GENERIC_VALUE_10="0" MPISPAWN_GENERIC_NAME_11=_ModuleTable002_ MPISPAWN_GENERIC_VALUE_11="L29wdC9tb2R1bGVmaWxlcy9UQUNDIixbImRlZmF1bHQiXT0wLFsiZnVsbE5hbWUiXT0iVEFDQyIsWyJsb2FkT3JkZXIiXT04LHByb3BUPXt9LFsic2hvcnQiXT0iVEFDQyIsWyJzdGF0dXMiXT0iYWN0aXZlIix9LFsiVEFDQy1wYXRocyJdPXtbIkZOIl09Ii9vcHQvbW9kdWxlZmlsZXMvVEFDQy1wYXRocyIsWyJkZWZhdWx0Il09MCxbImZ1bGxOYW1lIl09IlRBQ0MtcGF0aHMiLFsibG9hZE9yZGVyIl09MSxwcm9wVD17fSxbInNob3J0Il09IlRBQ0MtcGF0aHMiLFsic3RhdHVzIl09ImFjdGl2ZSIsfSxjbHVzdGVyPXtbIkZOIl09Ii9vcHQvbW9kdWxlZmlsZXMvY2x1c3RlciIsWyJkZWZhdWx0Il09MCxbImZ1bGxOYW1lIl09ImNsdXN0ZXIiLFsibG9hZE9yZGVyIl09Nyxwcm9w" MPISPAWN_GENERIC_NAME_12=INPUTRC MPISPAWN_GENERIC_VALUE_12="/etc/inputrc" MPISPAWN_GENERIC_NAME_13=I_MPI_OFA_ADAPTER_NAME MPISPAWN_GENERIC_VALUE_13="mlx4_0" MPISPAWN_GENERIC_NAME_14=QTLIB MPISPAWN_GENERIC_VALUE_14="/usr/lib64/qt-3.3/lib" MPISPAWN_GENERIC_NAME_15=SLURM_CPUS_ON_NODE MPISPAWN_GENERIC_VALUE_15="16" MPISPAWN_GENERIC_NAME_16=SLURM_TACC_JOBNAME MPISPAWN_GENERIC_VALUE_16="test" MPISPAWN_GENERIC_NAME_17=SLURM_NODEID MPISPAWN_GENERIC_VALUE_17="0" MPISPAWN_GENERIC_NAME_18=IIDB_BIN MPISPAWN_GENERIC_VALUE_18="/opt/apps/intel/13/composer_xe_2013.2.146/bin/intel64" MPISPAWN_GENERIC_NAME_19=MIC_I_MPI_OFA_ADAPTER_NAME MPISPAWN_GENERIC_VALUE_19="mlx4_0" MPISPAWN_GENERIC_NAME_20=HISTSIZE MPISPAWN_GENERIC_VALUE_20="1000" MPISPAWN_GENERIC_NAME_21=_ModuleTable_Sz_ MPISPAWN_GENERIC_VALUE_21="5" MPISPAWN_GENERIC_NAME_22=SLURM_TOPOLOGY_ADDR MPISPAWN_GENERIC_VALUE_22="c557-202" MPISPAWN_GENERIC_NAME_23=TACC_MKL_INC MPISPAWN_GENERIC_VALUE_23="/opt/apps/intel/13/composer_xe_2013.2.146/mkl/include" MPISPAWN_GENERIC_NAME_24=TACC_XALT_DIR MPISPAWN_GENERIC_VALUE_24="/opt/apps/xalt/0.4.6/" MPISPAWN_GENERIC_NAME_25=SLURM_SUBMIT_DIR MPISPAWN_GENERIC_VALUE_25="/work/03192/priyaj/wannier90-2.0.0/examples/example05/2.vasp_wan" MPISPAWN_GENERIC_NAME_26=HOSTNAME MPISPAWN_GENERIC_VALUE_26="c557-202" MPISPAWN_GENERIC_NAME_27=APPS MPISPAWN_GENERIC_VALUE_27="/opt/apps" MPISPAWN_GENERIC_NAME_28=SHELL MPISPAWN_GENERIC_VALUE_28="/bin/bash" MPISPAWN_GENERIC_NAME_29=TACC_FAMILY_MPI MPISPAWN_GENERIC_VALUE_29="mvapich2" MPISPAWN_GENERIC_NAME_30=TACC_PUBLIC_MACHINE MPISPAWN_GENERIC_VALUE_30="1" MPISPAWN_GENERIC_NAME_31=MV2_USE_OLD_BCAST MPISPAWN_GENERIC_VALUE_31="1" MPISPAWN_GENERIC_NAME_32=SLURM_JOB_NUM_NODES MPISPAWN_GENERIC_VALUE_32="1" MPISPAWN_GENERIC_NAME_33=SLURM_TASK_PID MPISPAWN_GENERIC_VALUE_33="37170" MPISPAWN_GENERIC_NAME_34=TACC_MPI_GETMODE MPISPAWN_GENERIC_VALUE_34="mvapich2_ssh" MPISPAWN_GENERIC_NAME_35=LANG MPISPAWN_GENERIC_VALUE_35="en_US.UTF-8" MPISPAWN_GENERIC_NAME_36=SLURM_LOCALID MPISPAWN_GENERIC_VALUE_36="0" MPISPAWN_GENERIC_NAME_37=SLURM_NPROCS MPISPAWN_GENERIC_VALUE_37="4" MPISPAWN_GENERIC_NAME_38=SLURM_TACC_NNODES_SET MPISPAWN_GENERIC_VALUE_38="0" MPISPAWN_GENERIC_NAME_39=LMOD_SETTARG_CMD MPISPAWN_GENERIC_VALUE_39=":" MPISPAWN_GENERIC_NAME_40=_ModuleTable004_ MPISPAWN_GENERIC_VALUE_40="Iix9LG12YXBpY2gyPXtbIkZOIl09Ii9vcHQvYXBwcy9pbnRlbDEzL21vZHVsZWZpbGVzL212YXBpY2gyLzEuOWEyIixbImRlZmF1bHQiXT0xLFsiZnVsbE5hbWUiXT0ibXZhcGljaDIvMS45YTIiLFsibG9hZE9yZGVyIl09NSxwcm9wVD17fSxbInNob3J0Il09Im12YXBpY2gyIixbInN0YXR1cyJdPSJhY3RpdmUiLH0seGFsdD17WyJGTiJdPSIvb3B0L2FwcHMvbW9kdWxlZmlsZXMveGFsdC8wLjQuNi5sdWEiLFsiZGVmYXVsdCJdPTEsWyJmdWxsTmFtZSJdPSJ4YWx0LzAuNC42IixbImxvYWRPcmRlciJdPTYscHJvcFQ9e30sWyJzaG9ydCJdPSJ4YWx0IixbInN0YXR1cyJdPSJhY3RpdmUiLH0sfSxtcGF0aEE9eyIvb3B0L2FwcHMvaW50ZWwxMy9tdmFwaWNoMl8xXzkvbW9kdWxl" MPISPAWN_GENERIC_NAME_41=MIC_ENV_PREFIX MPISPAWN_GENERIC_VALUE_41="MIC" MPISPAWN_GENERIC_NAME_42=LMOD_SYSTEM_DEFAULT_MODULES MPISPAWN_GENERIC_VALUE_42="TACC" MPISPAWN_GENERIC_NAME_43=LD_LIBRARY_PATH MPISPAWN_GENERIC_VALUE_43="/opt/apps/intel13/mvapich2/1.9/lib:/opt/apps/intel13/mvapich2/1.9/lib/shared:/opt/apps/intel/13/composer_xe_2013.2.146/tbb/lib/intel64:/opt/apps/intel/13/composer_xe_2013.2.146/compiler/lib/intel64:/opt/intel/mic/coi/host-linux-release/lib:/opt/intel/mic/myo/lib:/opt/apps/intel/13/composer_xe_2013.2.146/mpirt/lib/intel64:/opt/apps/intel/13/composer_xe_2013.2.146/ipp/../compiler/lib/intel64:/opt/apps/intel/13/composer_xe_2013.2.146/ipp/lib/intel64:/opt/apps/intel/13/composer_xe_2013.2.146/compiler/lib/intel64:/opt/apps/intel/13/composer_xe_2013.2.146/mkl/lib/intel64:/opt/apps/intel/13/composer_xe_2013.2.146/tbb/lib/intel64" MPISPAWN_GENERIC_NAME_44=PKG_CONFIG_PATH MPISPAWN_GENERIC_VALUE_44="/opt/apps/intel13/mvapich2/1.9/lib/pkgconfig" MPISPAWN_GENERIC_NAME_45=LMOD_PREPEND_BLOCK MPISPAWN_GENERIC_VALUE_45="normal" MPISPAWN_GENERIC_NAME_46=TACC_FAMILY_COMPILER MPISPAWN_GENERIC_VALUE_46="intel" MPISPAWN_GENERIC_NAME_47=TACC_DOMAIN MPISPAWN_GENERIC_VALUE_47="stampede" MPISPAWN_GENERIC_NAME_48=MV2_HOMOGENEOUS_CLUSTER MPISPAWN_GENERIC_VALUE_48="1" MPISPAWN_GENERIC_NAME_49=LMOD_FAMILY_COMPILER MPISPAWN_GENERIC_VALUE_49="intel" MPISPAWN_GENERIC_NAME_50=MV2_USE_UD_HYBRID MPISPAWN_GENERIC_VALUE_50="0" MPISPAWN_GENERIC_NAME_51=SLURM_PROCID MPISPAWN_GENERIC_VALUE_51="0" MPISPAWN_GENERIC_NAME_52=LMOD_COLORIZE MPISPAWN_GENERIC_VALUE_52="yes" MPISPAWN_GENERIC_NAME_53=I_MPI_HYDRA_BRANCH_COUNT MPISPAWN_GENERIC_VALUE_53="6000" MPISPAWN_GENERIC_NAME_54=MV2_DEFAULT_TIME_OUT MPISPAWN_GENERIC_VALUE_54="23" MPISPAWN_GENERIC_NAME_55=MV2_USE_RING_STARTUP MPISPAWN_GENERIC_VALUE_55="0" MPISPAWN_GENERIC_NAME_56=TMPDIR MPISPAWN_GENERIC_VALUE_56="/tmp" MPISPAWN_GENERIC_NAME_57=SLURM_JOB_ID MPISPAWN_GENERIC_VALUE_57="4357377" MPISPAWN_GENERIC_NAME_58=TACC_MKL_DIR MPISPAWN_GENERIC_VALUE_58="/opt/apps/intel/13/composer_xe_2013.2.146/mkl" MPISPAWN_GENERIC_NAME_59=SLURM_CHECKPOINT_IMAGE_DIR MPISPAWN_GENERIC_VALUE_59="/work/03192/priyaj/wannier90-2.0.0/examples/example05/2.vasp_wan" MPISPAWN_GENERIC_NAME_60=LC_ALL MPISPAWN_GENERIC_VALUE_60="en_US.UTF-8" MPISPAWN_GENERIC_NAME_61=LMOD_FAMILY_MPI MPISPAWN_GENERIC_VALUE_61="mvapich2" MPISPAWN_GENERIC_NAME_62=SCRATCH MPISPAWN_GENERIC_VALUE_62="/scratch/03192/priyaj" MPISPAWN_GENERIC_NAME_63=LOGNAME MPISPAWN_GENERIC_VALUE_63="priyaj" MPISPAWN_GENERIC_NAME_64=LMOD_CMD MPISPAWN_GENERIC_VALUE_64="/opt/apps/lmod/lmod/libexec/lmod" MPISPAWN_GENERIC_NAME_65=NODE_TASKS_PPN_INFO MPISPAWN_GENERIC_VALUE_65=""4,0_"" MPISPAWN_GENERIC_NAME_66=PATH MPISPAWN_GENERIC_VALUE_66="/opt/apps/xalt/0.4.6/bin:/opt/apps/intel13/mvapich2/1.9/bin:/opt/apps/intel/13/vtune_amplifier_xe_2013/bin64:/opt/apps/intel/13/composer_xe_2013.2.146/mpirt/bin/intel64:/opt/intel/sep/bin:/usr/lib64/qt-3.3/bin:/usr/local/bin:/bin:/usr/bin:/usr/X11R6/bin:/opt/ofed/bin:/opt/ofed/sbin:.:/opt/apps/intel/13/composer_xe_2013.2.146/bin/intel64:/opt/apps/intel/13/composer_xe_2013.2.146/bin/intel64_mic:/opt/apps/intel/13/composer_xe_2013.2.146/debugger/gui/intel64" MPISPAWN_GENERIC_NAME_67=LMOD_PKG MPISPAWN_GENERIC_VALUE_67="/opt/apps/lmod/lmod" MPISPAWN_GENERIC_NAME_68=SLURM_NTASKS MPISPAWN_GENERIC_VALUE_68="4" MPISPAWN_GENERIC_NAME_69=TACC_MKL_LIB MPISPAWN_GENERIC_VALUE_69="/opt/apps/intel/13/composer_xe_2013.2.146/mkl/lib/intel64" MPISPAWN_GENERIC_NAME_70=_ModuleTable005_ MPISPAWN_GENERIC_VALUE_70="ZmlsZXMiLCIvb3B0L2FwcHMvaW50ZWwxMy9tb2R1bGVmaWxlcyIsIi9vcHQvYXBwcy94c2VkZS9tb2R1bGVmaWxlcyIsIi9vcHQvYXBwcy9tb2R1bGVmaWxlcyIsIi9vcHQvbW9kdWxlZmlsZXMiLH0sWyJzeXN0ZW1CYXNlTVBBVEgiXT0iL29wdC9hcHBzL3hzZWRlL21vZHVsZWZpbGVzOi9vcHQvYXBwcy9tb2R1bGVmaWxlczovb3B0L21vZHVsZWZpbGVzIixbInZlcnNpb24iXT0yLH0=" MPISPAWN_GENERIC_NAME_71=MV2_USE_HUGEPAGES MPISPAWN_GENERIC_VALUE_71="0" MPISPAWN_GENERIC_NAME_72=MAIL MPISPAWN_GENERIC_VALUE_72="/var/spool/mail/priyaj" MPISPAWN_GENERIC_NAME_73=QTDIR MPISPAWN_GENERIC_VALUE_73="/usr/lib64/qt-3.3" MPISPAWN_GENERIC_NAME_74=SYSTEM MPISPAWN_GENERIC_VALUE_74="linux" MPISPAWN_GENERIC_NAME_75=SLURM_TACC_RUNLIMIT_MINS MPISPAWN_GENERIC_VALUE_75="10" MPISPAWN_GENERIC_NAME_76=LMOD_DEFAULT_MODULEPATH MPISPAWN_GENERIC_VALUE_76="/opt/apps/xsede/modulefiles:/opt/apps/modulefiles:/opt/modulefiles" MPISPAWN_GENERIC_NAME_77=ARCHIVE MPISPAWN_GENERIC_VALUE_77="/home/03192/priyaj" MPISPAWN_GENERIC_NAME_78=_ MPISPAWN_GENERIC_VALUE_78="/usr/local/bin/build_env.pl" MPISPAWN_GENERIC_NAME_79=__BASHRC_SOURCED__ MPISPAWN_GENERIC_VALUE_79="1" MPISPAWN_GENERIC_NAME_80=ARMCI_OPENIB_DEVICE MPISPAWN_GENERIC_VALUE_80="mlx4_0" MPISPAWN_GENERIC_NAME_81=ENVIRONMENT MPISPAWN_GENERIC_VALUE_81="BATCH" MPISPAWN_GENERIC_NAME_82=_ModuleTable003_ MPISPAWN_GENERIC_VALUE_82="VD17fSxbInNob3J0Il09ImNsdXN0ZXIiLFsic3RhdHVzIl09ImFjdGl2ZSIsfSxbImNsdXN0ZXItcGF0aHMiXT17WyJGTiJdPSIvb3B0L21vZHVsZWZpbGVzL2NsdXN0ZXItcGF0aHMiLFsiZGVmYXVsdCJdPTAsWyJmdWxsTmFtZSJdPSJjbHVzdGVyLXBhdGhzIixbImxvYWRPcmRlciJdPTMscHJvcFQ9e30sWyJzaG9ydCJdPSJjbHVzdGVyLXBhdGhzIixbInN0YXR1cyJdPSJhY3RpdmUiLH0saW50ZWw9e1siRk4iXT0iL29wdC9hcHBzL21vZHVsZWZpbGVzL2ludGVsLzEzLjAuMi4xNDYiLFsiZGVmYXVsdCJdPTEsWyJmdWxsTmFtZSJdPSJpbnRlbC8xMy4wLjIuMTQ2IixbImxvYWRPcmRlciJdPTQscHJvcFQ9e30sWyJzaG9ydCJdPSJpbnRlbCIsWyJzdGF0dXMiXT0iYWN0aXZl" MPISPAWN_GENERIC_NAME_83=SLURM_TACC_NODES MPISPAWN_GENERIC_VALUE_83="1" MPISPAWN_GENERIC_NAME_84=MV2_IBA_HCA MPISPAWN_GENERIC_VALUE_84="mlx4_0" MPISPAWN_GENERIC_NAME_85=QTINC MPISPAWN_GENERIC_VALUE_85="/usr/lib64/qt-3.3/include" MPISPAWN_GENERIC_NAME_86=SINK_LD_LIBRARY_PATH MPISPAWN_GENERIC_VALUE_86="/opt/apps/intel/13/composer_xe_2013.2.146/compiler/lib/mic:/opt/apps/intel/13/composer_xe_2013.2.146/mkl/lib/mic" MPISPAWN_GENERIC_NAME_87=CVS_RSH MPISPAWN_GENERIC_VALUE_87="ssh" MPISPAWN_GENERIC_NAME_88=ICC_BIN MPISPAWN_GENERIC_VALUE_88="/opt/apps/intel/13/composer_xe_2013.2.146/bin/intel64" MPISPAWN_GENERIC_NAME_89=USER MPISPAWN_GENERIC_VALUE_89="priyaj" MPISPAWN_GENERIC_NAME_90=IPPROOT MPISPAWN_GENERIC_VALUE_90="/opt/apps/intel/13/composer_xe_2013.2.146/ipp" MPISPAWN_GENERIC_NAME_91=MIC_I_MPI_DAPL_PROVIDER MPISPAWN_GENERIC_VALUE_91="ofa-v2-mlx4_0-1u" MPISPAWN_GENERIC_NAME_92=G_BROKEN_FILENAMES MPISPAWN_GENERIC_VALUE_92="1" MPISPAWN_GENERIC_NAME_93=SLURM_TACC_CORES MPISPAWN_GENERIC_VALUE_93="4" MPISPAWN_GENERIC_NAME_94=LMOD_DIR MPISPAWN_GENERIC_VALUE_94="/opt/apps/lmod/lmod/libexec" MPISPAWN_GENERIC_NAME_95=OMP_NUM_THREADS MPISPAWN_GENERIC_VALUE_95="1" MPISPAWN_GENERIC_NAME_96=__PERSONAL_PATH__ MPISPAWN_GENERIC_VALUE_96="1" MPISPAWN_GENERIC_NAME_97=SLURM_JOB_NAME MPISPAWN_GENERIC_VALUE_97="test" MPISPAWN_GENERIC_NAME_98=SLURM_SUBMIT_HOST MPISPAWN_GENERIC_VALUE_98="login1.stampede.tacc.utexas.edu" MPISPAWN_GENERIC_NAME_99=SLURM_QUEUE MPISPAWN_GENERIC_VALUE_99="development" MPISPAWN_GENERIC_NAME_100=SLURM_TACC_ACCOUNT MPISPAWN_GENERIC_VALUE_100="TG-DMR140116" MPISPAWN_GENERIC_NAME_101=TBBROOT MPISPAWN_GENERIC_VALUE_101="/opt/apps/intel/13/composer_xe_2013.2.146/tbb" MPISPAWN_GENERIC_NAME_102=MPICH_HOME MPISPAWN_GENERIC_VALUE_102="/opt/apps/intel13/mvapich2/1.9" MPISPAWN_GENERIC_NAME_103=I_MPI_DAPL_PROVIDER MPISPAWN_GENERIC_VALUE_103="ofa-v2-mlx4_0-1u" MPISPAWN_GENERIC_NAME_104=SLURM_JOB_NODELIST MPISPAWN_GENERIC_VALUE_104="c557-202" MPISPAWN_GENERIC_NAME_105=SLURM_NNODES MPISPAWN_GENERIC_VALUE_105="1" MPISPAWN_GENERIC_NAME_106=MKLROOT MPISPAWN_GENERIC_VALUE_106="/opt/apps/intel/13/composer_xe_2013.2.146/mkl" MPISPAWN_GENERIC_NAME_107=SLURM_TACC_NCORES_SET MPISPAWN_GENERIC_VALUE_107="1" MPISPAWN_GENERIC_NAME_108=SLURM_TOPOLOGY_ADDR_PATTERN MPISPAWN_GENERIC_VALUE_108="node" MPISPAWN_GENERIC_NAME_109=BASH_ENV MPISPAWN_GENERIC_VALUE_109="/etc/tacc/tacc_functions" MPISPAWN_GENERIC_NAME_110=__Init_Default_Modules MPISPAWN_GENERIC_VALUE_110="1" MPISPAWN_GENERIC_NAME_111=TACC_XALT_BIN MPISPAWN_GENERIC_VALUE_111="/opt/apps/xalt/0.4.6/bin" MPISPAWN_GENERIC_NAME_112=LMOD_FULL_SETTARG_SUPPORT MPISPAWN_GENERIC_VALUE_112="no" MPISPAWN_ID=0 MPISPAWN_WORKING_DIR=/work/03192/priyaj/wannier90-2.0.0/examples/example05/2.vasp_wan MPISPAWN_MPIRUN_RANK_0=0 MPISPAWN_MPIRUN_RANK_1=1 MPISPAWN_MPIRUN_RANK_2=2 MPISPAWN_MPIRUN_RANK_3=3 /opt/apps/intel13/mvapich2/1.9/bin/mpispawn 0
TACC: MPI job exited with code: 1
 
TACC: Shutdown complete. Exiting.
