       #
       # Generated by the Wannier90 code http://www.wannier.org
       # On 27Oct2014 at 00:15:00 
       #
CRYSTAL
PRIMVEC
  -2.8400941   0.0000000   2.8400941
   0.0000000   2.8400941   2.8400941
  -2.8400941   2.8400941   0.0000000
CONVVEC
  -2.8400941   0.0000000   2.8400941
   0.0000000   2.8400941   2.8400941
  -2.8400941   2.8400941   0.0000000
PRIMCOORD
     2  1
Ga      0.0000000   0.0000000   0.0000000
As     -1.4200470   1.4200470   1.4200470


BEGIN_BLOCK_DATAGRID_3D
3D_field
BEGIN_DATAGRID_3D_UNKNOWN
    40    40    40
    5.964198   -5.964198   -5.964198
  -5.5381835   0.0000000   5.5381835
   0.0000000   5.5381835   5.5381835
  -5.5381835   5.5381835   0.0000000
  0.27241E-01  0.19656E-01  0.11420E-01  0.41396E-02 -0.86511E-03 -0.42089E-02
 -0.65256E-02 -0.76867E-02 -0.77723E-02 -0.49035E-02 -0.20352E-03  0.46004E-02
  0.10109E-01  0.17322E-01  0.25084E-01  0.32464E-01  0.40144E-01  0.47546E-01
  0.51387E-01  0.49662E-01  0.41637E-01  0.29363E-01  0.16438E-01  0.36966E-02
 -0.88724E-02 -0.18907E-01 -0.23894E-01 -0.23980E-01 -0.20174E-01 -0.14700E-01
 -0.86060E-02 -0.20287E-02  0.39285E-02  0.10436E-01  0.17066E-01  0.22834E-01
  0.28646E-01  0.33835E-01  0.36058E-01  0.33285E-01  0.19741E-01  0.11519E-01
  0.41323E-02 -0.13954E-02 -0.51874E-02 -0.74804E-02 -0.84781E-02 -0.82831E-02
 -0.65832E-02 -0.27028E-02  0.16826E-02  0.64507E-02  0.12525E-01  0.19419E-01
  0.25704E-01  0.32030E-01  0.37852E-01  0.40661E-01  0.39479E-01  0.33218E-01
  0.23034E-01  0.11485E-01 -0.35864E-03 -0.11978E-01 -0.22555E-01 -0.28952E-01
 -0.29218E-01 -0.25156E-01 -0.18802E-01 -0.11667E-01 -0.44348E-02  0.25428E-02
  0.88427E-02  0.14843E-01  0.20483E-01  0.25796E-01  0.30879E-01  0.34171E-01
  0.32638E-01  0.27257E-01  0.11406E-01  0.40365E-02 -0.14955E-02 -0.50812E-02
 -0.79493E-02 -0.92761E-02 -0.87861E-02 -0.72196E-02 -0.49574E-02 -0.12862E-02
  0.30532E-02  0.82194E-02  0.13911E-01  0.19638E-01  0.24398E-01  0.29334E-01
  0.31589E-01  0.29906E-01  0.24474E-01  0.16116E-01  0.54533E-02 -0.56637E-02
 -0.16610E-01 -0.26123E-01 -0.32097E-01 -0.33194E-01 -0.29525E-01 -0.22961E-01
 -0.15277E-01 -0.66675E-02  0.10300E-02  0.74995E-02  0.13299E-01  0.18375E-01
  0.22790E-01  0.27016E-01  0.30495E-01  0.30864E-01  0.26528E-01  0.19326E-01
  0.39785E-02 -0.15340E-02 -0.53762E-02 -0.81385E-02 -0.10093E-01 -0.99069E-02
 -0.84636E-02 -0.63978E-02 -0.35857E-02  0.43009E-03  0.45235E-02  0.94567E-02
  0.14126E-01  0.17953E-01  0.21324E-01  0.22921E-01  0.21186E-01  0.15905E-01
  0.86479E-02 -0.84920E-03 -0.11008E-01 -0.20810E-01 -0.29353E-01 -0.34385E-01
 -0.35654E-01 -0.32283E-01 -0.25789E-01 -0.17562E-01 -0.92179E-02 -0.11737E-02
  0.58889E-02  0.11358E-01  0.16406E-01  0.20334E-01  0.23623E-01  0.26198E-01
  0.27281E-01  0.24984E-01  0.19214E-01  0.11528E-01 -0.81787E-03 -0.51609E-02
 -0.80362E-02 -0.98753E-02 -0.10511E-01 -0.99556E-02 -0.82820E-02 -0.55519E-02
 -0.20356E-02  0.15111E-02  0.52460E-02  0.90994E-02  0.12442E-01  0.14233E-01
  0.14634E-01  0.13028E-01  0.89242E-02  0.23380E-02 -0.63271E-02 -0.15371E-01
 -0.23413E-01 -0.30898E-01 -0.35454E-01 -0.36134E-01 -0.33391E-01 -0.27210E-01
 -0.19305E-01 -0.10850E-01 -0.31178E-02  0.34887E-02  0.91469E-02  0.13310E-01
  0.17229E-01  0.20042E-01  0.21603E-01  0.22056E-01  0.20827E-01  0.17552E-01
  0.11686E-01  0.48849E-02 -0.45062E-02 -0.74432E-02 -0.92083E-02 -0.99110E-02
 -0.99682E-02 -0.91044E-02 -0.72201E-02 -0.41759E-02 -0.12196E-02  0.13422E-02
  0.45460E-02  0.73104E-02  0.85430E-02  0.81760E-02  0.63157E-02  0.30928E-02
 -0.21706E-02 -0.95721E-02 -0.18010E-01 -0.24682E-01 -0.30253E-01 -0.34242E-01
 -0.35312E-01 -0.32852E-01 -0.27770E-01 -0.20012E-01 -0.11881E-01 -0.44204E-02
  0.17692E-02  0.70481E-02  0.10547E-01  0.13034E-01  0.15059E-01  0.16152E-01
  0.16338E-01  0.14952E-01  0.13064E-01  0.95961E-02  0.47546E-02 -0.61412E-04
 -0.65263E-02 -0.85790E-02 -0.88852E-02 -0.85136E-02 -0.81189E-02 -0.72181E-02
 -0.47809E-02 -0.27396E-02 -0.90902E-03  0.11315E-02  0.32661E-02  0.41281E-02
  0.36912E-02  0.19748E-02 -0.10609E-02 -0.47226E-02 -0.10612E-01 -0.17695E-01
 -0.23470E-01 -0.27593E-01 -0.30637E-01 -0.31833E-01 -0.29554E-01 -0.24671E-01
 -0.18522E-01 -0.11049E-01 -0.42926E-02  0.72900E-03  0.55966E-02  0.91858E-02
  0.10190E-01  0.10013E-01  0.10201E-01  0.97418E-02  0.83317E-02  0.72005E-02
  0.52647E-02  0.21834E-02 -0.87704E-03 -0.36194E-02 -0.76656E-02 -0.82386E-02
 -0.72482E-02 -0.65111E-02 -0.56350E-02 -0.41299E-02 -0.27728E-02 -0.13517E-02
  0.15652E-03  0.13613E-02  0.10479E-02  0.37727E-03 -0.88752E-03 -0.32432E-02
 -0.63879E-02 -0.10615E-01 -0.16055E-01 -0.20403E-01 -0.23143E-01 -0.25220E-01
 -0.25752E-01 -0.23345E-01 -0.18768E-01 -0.13699E-01 -0.77492E-02 -0.19647E-02
  0.17792E-02  0.48548E-02  0.71222E-02  0.75693E-02  0.61654E-02  0.47161E-02
  0.40163E-02  0.21993E-02  0.11243E-02 -0.10063E-03 -0.21852E-02 -0.38678E-02
 -0.51210E-02 -0.63994E-02 -0.76478E-02 -0.66384E-02 -0.48578E-02 -0.34936E-02
 -0.21231E-02 -0.11580E-02 -0.86368E-03  0.21560E-03  0.10060E-02  0.12523E-03
 -0.18733E-02 -0.32194E-02 -0.47361E-02 -0.73062E-02 -0.10550E-01 -0.13543E-01
 -0.16720E-01 -0.17861E-01 -0.18297E-01 -0.18133E-01 -0.15592E-01 -0.11323E-01
 -0.68267E-02 -0.22354E-02  0.22008E-02  0.52355E-02  0.56100E-02  0.52469E-02
  0.40547E-02  0.14787E-02 -0.72088E-03 -0.20329E-02 -0.39926E-02 -0.57706E-02
 -0.64774E-02 -0.69321E-02 -0.80936E-02 -0.81267E-02 -0.77409E-02 -0.76112E-02
 -0.48735E-02 -0.25918E-02 -0.10448E-02  0.36701E-03  0.15201E-02  0.12888E-02
  0.13185E-02  0.13376E-02  0.10264E-03 -0.26253E-02 -0.47282E-02 -0.59792E-02
 -0.77935E-02 -0.98780E-02 -0.11387E-01 -0.12291E-01 -0.12207E-01 -0.11782E-01
 -0.10340E-01 -0.75453E-02 -0.35105E-02  0.55553E-03  0.42123E-02  0.69722E-02
  0.86759E-02  0.81774E-02  0.50008E-02  0.79577E-03 -0.36835E-02 -0.70224E-02
 -0.93858E-02 -0.11445E-01 -0.13477E-01 -0.13707E-01 -0.13111E-01 -0.12625E-01
 -0.11800E-01 -0.99400E-02 -0.81149E-02 -0.67375E-02 -0.26444E-03  0.17812E-02
  0.30208E-02  0.44555E-02  0.50620E-02  0.44712E-02  0.32106E-02  0.11121E-02
 -0.17541E-02 -0.48086E-02 -0.64119E-02 -0.81298E-02 -0.94281E-02 -0.98818E-02
 -0.88340E-02 -0.74150E-02 -0.59788E-02 -0.38854E-02 -0.83707E-04  0.43230E-02
  0.83009E-02  0.11314E-01  0.13131E-01  0.13347E-01  0.11408E-01  0.67590E-02
  0.48806E-03 -0.65334E-02 -0.12945E-01 -0.17479E-01 -0.20572E-01 -0.22359E-01
 -0.22530E-01 -0.20895E-01 -0.18313E-01 -0.15869E-01 -0.13157E-01 -0.10074E-01
 -0.69450E-02 -0.32475E-02  0.46107E-02  0.64898E-02  0.82195E-02  0.93402E-02
  0.92705E-02  0.72087E-02  0.40317E-02  0.29814E-03 -0.31101E-02 -0.60772E-02
 -0.81934E-02 -0.91669E-02 -0.89669E-02 -0.72573E-02 -0.47901E-02 -0.19986E-02
  0.11416E-02  0.58433E-02  0.11042E-01  0.15302E-01  0.18084E-01  0.19867E-01
  0.19496E-01  0.15961E-01  0.96564E-02  0.18151E-02 -0.79990E-02 -0.17074E-01
 -0.24437E-01 -0.29596E-01 -0.32089E-01 -0.31955E-01 -0.29376E-01 -0.26017E-01
 -0.21554E-01 -0.17029E-01 -0.12818E-01 -0.87529E-02 -0.37680E-02  0.12415E-02
  0.10325E-01  0.12680E-01  0.14048E-01  0.14105E-01  0.12200E-01  0.86834E-02
  0.36332E-02 -0.77292E-03 -0.47486E-02 -0.78869E-02 -0.95488E-02 -0.90106E-02
 -0.67939E-02 -0.38824E-02  0.49275E-04  0.49581E-02  0.10524E-01  0.16607E-01
  0.21468E-01  0.23996E-01  0.25752E-01  0.25713E-01  0.21710E-01  0.14007E-01
  0.40580E-02 -0.79911E-02 -0.20434E-01 -0.30939E-01 -0.38661E-01 -0.42825E-01
 -0.42698E-01 -0.39960E-01 -0.35820E-01 -0.29742E-01 -0.23070E-01 -0.16577E-01
 -0.10653E-01 -0.48384E-02  0.10051E-02  0.62545E-02  0.17432E-01  0.19485E-01
  0.19593E-01  0.17919E-01  0.14178E-01  0.81406E-02  0.19170E-02 -0.31765E-02
 -0.74116E-02 -0.10040E-01 -0.96240E-02 -0.70605E-02 -0.39149E-02  0.71836E-03
  0.72160E-02  0.13824E-01  0.20353E-01  0.25976E-01  0.29395E-01  0.30779E-01
  0.31067E-01  0.27355E-01  0.19008E-01  0.72253E-02 -0.73594E-02 -0.23667E-01
 -0.38330E-01 -0.48742E-01 -0.55025E-01 -0.56369E-01 -0.53235E-01 -0.47485E-01
 -0.40368E-01 -0.31444E-01 -0.22041E-01 -0.13584E-01 -0.59360E-02  0.97799E-03
  0.72051E-02  0.12870E-01  0.25170E-01  0.25618E-01  0.24646E-01  0.21324E-01
  0.14658E-01  0.63180E-02 -0.94991E-03 -0.62989E-02 -0.10317E-01 -0.11433E-01
 -0.86972E-02 -0.48752E-02  0.15847E-03  0.70516E-02  0.15236E-01  0.22258E-01
  0.28286E-01  0.33238E-01  0.36022E-01  0.36433E-01  0.33145E-01  0.24084E-01
  0.10615E-01 -0.63033E-02 -0.26286E-01 -0.45491E-01 -0.60448E-01 -0.69399E-01
 -0.72973E-01 -0.70153E-01 -0.62480E-01 -0.52655E-01 -0.41330E-01 -0.29745E-01
 -0.18635E-01 -0.77891E-02  0.13479E-02  0.87401E-02  0.15341E-01  0.21507E-01
  0.32274E-01  0.32031E-01  0.29471E-01  0.22710E-01  0.13061E-01  0.27882E-02
 -0.47336E-02 -0.10475E-01 -0.13616E-01 -0.12156E-01 -0.74342E-02 -0.20570E-02
  0.50163E-02  0.13870E-01  0.22211E-01  0.28791E-01  0.34678E-01  0.39497E-01
  0.40705E-01  0.38011E-01  0.29176E-01  0.14115E-01 -0.53171E-02 -0.28697E-01
 -0.53095E-01 -0.73412E-01 -0.86848E-01 -0.92618E-01 -0.90817E-01 -0.81614E-01
 -0.68541E-01 -0.53477E-01 -0.38928E-01 -0.25343E-01 -0.12106E-01  0.35835E-03
  0.98067E-02  0.17608E-01  0.24880E-01  0.30393E-01  0.40073E-01  0.37734E-01
  0.31501E-01  0.21164E-01  0.91715E-02 -0.22508E-02 -0.10714E-01 -0.15939E-01
 -0.16470E-01 -0.12302E-01 -0.60889E-02  0.10988E-02  0.10441E-01  0.20463E-01
  0.28342E-01  0.34979E-01  0.40421E-01  0.42767E-01  0.40549E-01  0.32831E-01
  0.17863E-01 -0.39189E-02 -0.29598E-01 -0.57687E-01 -0.83385E-01 -0.10348E+00
 -0.11457E+00 -0.11532E+00 -0.10565E+00 -0.89289E-01 -0.69950E-01 -0.50223E-01
 -0.32959E-01 -0.16909E-01 -0.18853E-02  0.10635E-01  0.19725E-01  0.28144E-01
  0.35592E-01  0.39555E-01  0.47480E-01  0.40816E-01  0.29764E-01  0.16017E-01
  0.20359E-02 -0.96503E-02 -0.17720E-01 -0.20667E-01 -0.18013E-01 -0.11792E-01
 -0.39337E-02  0.57978E-02  0.16597E-01  0.26067E-01  0.33375E-01  0.39562E-01
  0.42692E-01  0.41035E-01  0.33697E-01  0.19713E-01 -0.18246E-02 -0.27373E-01
 -0.54849E-01 -0.82303E-01 -0.10796E+00 -0.12784E+00 -0.13730E+00 -0.13203E+00
 -0.11470E+00 -0.91075E-01 -0.65370E-01 -0.41969E-01 -0.21762E-01 -0.44358E-02
  0.11060E-01  0.22890E-01  0.32266E-01  0.40575E-01  0.46522E-01  0.48802E-01
  0.51327E-01  0.39493E-01  0.24460E-01  0.85910E-02 -0.62205E-02 -0.17900E-01
 -0.23454E-01 -0.23305E-01 -0.18212E-01 -0.10354E-01 -0.12081E-03  0.11115E-01
  0.21549E-01  0.29349E-01  0.36086E-01  0.40779E-01  0.40566E-01  0.33810E-01
  0.20166E-01 -0.64513E-03 -0.24245E-01 -0.47096E-01 -0.69862E-01 -0.94846E-01
 -0.12128E+00 -0.14322E+00 -0.15101E+00 -0.14008E+00 -0.11518E+00 -0.83730E-01
 -0.53275E-01 -0.27520E-01 -0.65548E-02  0.11604E-01  0.26034E-01  0.36957E-01
  0.45736E-01  0.52811E-01  0.56520E-01  0.57095E-01  0.49616E-01  0.33162E-01
  0.16068E-01 -0.69143E-03 -0.15316E-01 -0.24491E-01 -0.27700E-01 -0.25056E-01
 -0.18244E-01 -0.76648E-02  0.45939E-02  0.15493E-01  0.24241E-01  0.30925E-01
  0.36537E-01  0.37918E-01  0.32824E-01  0.19535E-01 -0.64056E-03 -0.22898E-01
 -0.40871E-01 -0.55533E-01 -0.74094E-01 -0.99991E-01 -0.12899E+00 -0.15123E+00
 -0.15497E+00 -0.13670E+00 -0.10351E+00 -0.66494E-01 -0.33649E-01 -0.75452E-02
  0.13308E-01  0.30237E-01  0.42853E-01  0.52041E-01  0.58909E-01  0.63029E-01
  0.64552E-01  0.60934E-01  0.41473E-01  0.23140E-01  0.53062E-02 -0.10917E-01
 -0.23604E-01 -0.30100E-01 -0.30480E-01 -0.25748E-01 -0.15682E-01 -0.34713E-02
  0.83412E-02  0.18347E-01  0.25662E-01  0.31026E-01  0.33007E-01  0.29009E-01
  0.17741E-01 -0.16743E-02 -0.24259E-01 -0.40859E-01 -0.49818E-01 -0.60431E-01
 -0.80633E-01 -0.10808E+00 -0.13641E+00 -0.15356E+00 -0.14868E+00 -0.12058E+00
 -0.80386E-01 -0.40564E-01 -0.79554E-02  0.17527E-01  0.37123E-01  0.50547E-01
  0.59519E-01  0.66148E-01  0.69688E-01  0.70476E-01  0.67520E-01  0.58004E-01
  0.29332E-01  0.11304E-01 -0.57276E-02 -0.20867E-01 -0.30730E-01 -0.34222E-01
 -0.31861E-01 -0.23310E-01 -0.11371E-01  0.66942E-03  0.11245E-01  0.20135E-01
  0.25732E-01  0.27410E-01  0.24181E-01  0.14167E-01 -0.38043E-02 -0.27611E-01
 -0.47013E-01 -0.55582E-01 -0.60693E-01 -0.73521E-01 -0.96020E-01 -0.12116E+00
 -0.14241E+00 -0.14854E+00 -0.13060E+00 -0.92147E-01 -0.47115E-01 -0.68210E-02
  0.24582E-01  0.47646E-01  0.62522E-01  0.70648E-01  0.74896E-01  0.76957E-01
  0.75887E-01  0.72165E-01  0.63685E-01  0.48240E-01  0.16492E-01 -0.45491E-03
 -0.16670E-01 -0.29071E-01 -0.35460E-01 -0.35385E-01 -0.29599E-01 -0.18666E-01
 -0.66395E-02  0.39666E-02  0.13212E-01  0.19537E-01  0.21721E-01  0.19159E-01
  0.10678E-01 -0.54234E-02 -0.29470E-01 -0.55062E-01 -0.69800E-01 -0.74208E-01
 -0.80526E-01 -0.95903E-01 -0.11557E+00 -0.13359E+00 -0.14313E+00 -0.13273E+00
 -0.98764E-01 -0.51372E-01 -0.48755E-02  0.33356E-01  0.61035E-01  0.78205E-01
  0.86183E-01  0.87272E-01  0.85679E-01  0.81646E-01  0.75890E-01  0.67473E-01
  0.53729E-01  0.35053E-01  0.36221E-02 -0.12073E-01 -0.26008E-01 -0.34475E-01
 -0.36328E-01 -0.32823E-01 -0.24679E-01 -0.13691E-01 -0.22413E-02  0.69211E-02
  0.13279E-01  0.15969E-01  0.14011E-01  0.72028E-02 -0.65020E-02 -0.28599E-01
 -0.57616E-01 -0.82369E-01 -0.94821E-01 -0.10002E+00 -0.10829E+00 -0.12116E+00
 -0.13360E+00 -0.14026E+00 -0.13183E+00 -0.10134E+00 -0.53712E-01 -0.16304E-02
  0.43326E-01  0.76508E-01  0.97728E-01  0.10638E+00  0.10544E+00  0.98524E-01
  0.88951E-01  0.79257E-01  0.69453E-01  0.56838E-01  0.39749E-01  0.20905E-01
 -0.88634E-02 -0.22529E-01 -0.32254E-01 -0.35501E-01 -0.33359E-01 -0.27629E-01
 -0.18592E-01 -0.77830E-02  0.23864E-02  0.89936E-02  0.11226E-01  0.98689E-02
  0.40947E-02 -0.75224E-02 -0.26378E-01 -0.53174E-01 -0.83331E-01 -0.10795E+00
 -0.12144E+00 -0.12901E+00 -0.13623E+00 -0.14247E+00 -0.14326E+00 -0.13176E+00
 -0.10151E+00 -0.54386E-01  0.60635E-03  0.52188E-01  0.92441E-01  0.11846E+00
  0.12967E+00  0.12827E+00  0.11668E+00  0.10045E+00  0.84318E-01  0.70014E-01
  0.57092E-01  0.41334E-01  0.23202E-01  0.60752E-02 -0.19053E-01 -0.28752E-01
 -0.33173E-01 -0.32189E-01 -0.27366E-01 -0.20143E-01 -0.10912E-01 -0.19372E-02
  0.49711E-02  0.82656E-02  0.69604E-02  0.17687E-02 -0.79662E-02 -0.23686E-01
 -0.45638E-01 -0.73430E-01 -0.10344E+00 -0.12793E+00 -0.14315E+00 -0.15133E+00
 -0.15360E+00 -0.14874E+00 -0.13278E+00 -0.10133E+00 -0.54478E-01  0.11691E-02
  0.56661E-01  0.10422E+00  0.13726E+00  0.15300E+00  0.15256E+00  0.13814E+00
  0.11589E+00  0.92771E-01  0.72674E-01  0.55872E-01  0.40528E-01  0.24114E-01
  0.75447E-02 -0.65098E-02 -0.24168E-01 -0.29302E-01 -0.29531E-01 -0.25636E-01
 -0.19179E-01 -0.11797E-01 -0.44094E-02  0.19713E-02  0.56649E-02  0.48510E-02
  0.28557E-03 -0.78017E-02 -0.20406E-01 -0.38227E-01 -0.60504E-01 -0.86887E-01
 -0.11455E+00 -0.13729E+00 -0.15103E+00 -0.15503E+00 -0.14875E+00 -0.13051E+00
 -0.98675E-01 -0.53552E-01  0.47571E-03  0.56687E-01  0.10844E+00  0.14818E+00
  0.17039E+00  0.17325E+00  0.15883E+00  0.13269E+00  0.10321E+00  0.77413E-01
  0.56017E-01  0.38228E-01  0.22950E-01  0.83924E-02 -0.47763E-02 -0.15513E-01
 -0.23920E-01 -0.25008E-01 -0.22901E-01 -0.17658E-01 -0.10941E-01 -0.44372E-02
  0.81369E-03  0.47507E-02  0.54010E-02  0.83196E-03 -0.65611E-02 -0.16964E-01
 -0.30930E-01 -0.49002E-01 -0.69445E-01 -0.92813E-01 -0.11510E+00 -0.13213E+00
 -0.14007E+00 -0.13670E+00 -0.12044E+00 -0.91889E-01 -0.51295E-01 -0.15441E-02
  0.52176E-01  0.10418E+00  0.14844E+00  0.17696E+00  0.18583E+00  0.17510E+00
  0.14821E+00  0.11448E+00  0.83134E-01  0.57410E-01  0.36674E-01  0.20936E-01
  0.84926E-02 -0.26346E-02 -0.12258E-01 -0.19615E-01 -0.20253E-01 -0.18834E-01
 -0.14979E-01 -0.91879E-02 -0.28855E-02  0.15999E-02  0.56040E-02  0.73466E-02
  0.40093E-02 -0.33211E-02 -0.12903E-01 -0.24507E-01 -0.38575E-01 -0.55096E-01
 -0.72963E-01 -0.90794E-01 -0.10561E+00 -0.11488E+00 -0.11512E+00 -0.10341E+00
 -0.80230E-01 -0.47330E-01 -0.47194E-02  0.43242E-01  0.92563E-01  0.13748E+00
  0.17032E+00  0.18601E+00  0.18128E+00  0.15826E+00  0.12374E+00  0.88536E-01
  0.59139E-01  0.36030E-01  0.19253E-01  0.73376E-02 -0.19314E-02 -0.10147E-01
 -0.16315E-01 -0.19501E-01 -0.14552E-01 -0.11763E-01 -0.68416E-02 -0.11754E-02
  0.36828E-02  0.71017E-02  0.92804E-02  0.76978E-02  0.16243E-02 -0.72424E-02
 -0.17417E-01 -0.29418E-01 -0.42688E-01 -0.56295E-01 -0.70154E-01 -0.81650E-01
 -0.89158E-01 -0.91053E-01 -0.83847E-01 -0.66459E-01 -0.40555E-01 -0.69777E-02
  0.33184E-01  0.76602E-01  0.11838E+00  0.15308E+00  0.17338E+00  0.17504E+00
  0.15827E+00  0.12751E+00  0.91925E-01  0.60700E-01  0.36183E-01  0.17800E-01
  0.55479E-02 -0.21715E-02 -0.84961E-02 -0.13391E-01 -0.15954E-01 -0.16282E-01
 -0.84000E-02 -0.44374E-02  0.89103E-03  0.56519E-02  0.90602E-02  0.10604E-01
  0.99566E-02  0.62034E-02 -0.80081E-03 -0.95370E-02 -0.20726E-01 -0.32057E-01
 -0.42820E-01 -0.53241E-01 -0.62465E-01 -0.68561E-01 -0.69702E-01 -0.65634E-01
 -0.53017E-01 -0.33702E-01 -0.77107E-02  0.24578E-01  0.60981E-01  0.97408E-01
  0.13002E+00  0.15264E+00  0.15881E+00  0.14841E+00  0.12367E+00  0.92002E-01
  0.61188E-01  0.36218E-01  0.17434E-01  0.45065E-02 -0.33495E-02 -0.80613E-02
 -0.11261E-01 -0.13049E-01 -0.12624E-01 -0.11150E-01 -0.21680E-02  0.25409E-02
  0.74136E-02  0.11380E-01  0.13351E-01  0.12903E-01  0.10123E-01  0.47546E-02
 -0.21691E-02 -0.11580E-01 -0.22570E-01 -0.31753E-01 -0.39920E-01 -0.47739E-01
 -0.52551E-01 -0.53413E-01 -0.50172E-01 -0.41980E-01 -0.27480E-01 -0.77839E-02
  0.17445E-01  0.47560E-01  0.78366E-01  0.10630E+00  0.12825E+00  0.13796E+00
  0.13276E+00  0.11448E+00  0.88338E-01  0.60612E-01  0.36376E-01  0.17403E-01
  0.41178E-02 -0.40215E-02 -0.82055E-02 -0.10117E-01 -0.11206E-01 -0.10416E-01
 -0.83827E-02 -0.55494E-02  0.39627E-02  0.87020E-02  0.13189E-01  0.16204E-01
  0.17179E-01  0.15158E-01  0.10337E-01  0.39751E-02 -0.36706E-02 -0.13441E-01
 -0.22378E-01 -0.29581E-01 -0.35868E-01 -0.40295E-01 -0.41571E-01 -0.38874E-01
 -0.32560E-01 -0.21906E-01 -0.65025E-02  0.13311E-01  0.36965E-01  0.62295E-01
  0.86143E-01  0.10542E+00  0.11665E+00  0.11601E+00  0.10347E+00  0.83098E-01
  0.59243E-01  0.36049E-01  0.17592E-01  0.39838E-02 -0.42682E-02 -0.81344E-02
 -0.96797E-02 -0.97533E-02 -0.87168E-02 -0.62931E-02 -0.33628E-02  0.38776E-04
  0.10584E-01  0.14812E-01  0.18648E-01  0.20469E-01  0.19987E-01  0.16250E-01
  0.96453E-02  0.20853E-02 -0.56332E-02 -0.13685E-01 -0.20679E-01 -0.25903E-01
 -0.29745E-01 -0.31445E-01 -0.29678E-01 -0.25182E-01 -0.16814E-01 -0.43964E-02
  0.11431E-01  0.30241E-01  0.50545E-01  0.70510E-01  0.87411E-01  0.98608E-01
  0.10044E+00  0.92772E-01  0.77487E-01  0.57350E-01  0.36066E-01  0.17988E-01
  0.45607E-02 -0.41358E-02 -0.84333E-02 -0.93519E-02 -0.93119E-02 -0.76302E-02
 -0.51526E-02 -0.19452E-02  0.17222E-02  0.59742E-02  0.16910E-01  0.20552E-01
  0.22953E-01  0.23611E-01  0.21685E-01  0.16033E-01  0.84310E-02  0.10777E-02
 -0.63934E-02 -0.13295E-01 -0.18282E-01 -0.21439E-01 -0.23025E-01 -0.21965E-01
 -0.18742E-01 -0.11924E-01 -0.19355E-02  0.10899E-01  0.26219E-01  0.42610E-01
  0.59443E-01  0.74844E-01  0.85623E-01  0.88865E-01  0.84258E-01  0.72564E-01
  0.56128E-01  0.36616E-01  0.19136E-01  0.55378E-02 -0.35057E-02 -0.82293E-02
 -0.96130E-02 -0.92860E-02 -0.73312E-02 -0.41811E-02 -0.10276E-02  0.29511E-02
  0.74696E-02  0.12351E-01  0.22601E-01  0.25683E-01  0.26966E-01  0.26207E-01
  0.22174E-01  0.15042E-01  0.73182E-02 -0.20444E-03 -0.71049E-02 -0.12593E-01
 -0.15945E-01 -0.16975E-01 -0.16485E-01 -0.13473E-01 -0.78483E-02  0.58868E-03
  0.10639E-01  0.22858E-01  0.36937E-01  0.52135E-01  0.65991E-01  0.76920E-01
  0.81819E-01  0.79157E-01  0.70087E-01  0.56114E-01  0.38260E-01  0.20898E-01
  0.71663E-02 -0.22863E-02 -0.79369E-02 -0.10264E-01 -0.97599E-02 -0.77552E-02
 -0.42728E-02 -0.53766E-03  0.33891E-02  0.81985E-02  0.13285E-01  0.18216E-01
  0.28519E-01  0.31013E-01  0.30412E-01  0.27216E-01  0.20997E-01  0.13113E-01
  0.52227E-02 -0.19027E-02 -0.80306E-02 -0.11657E-01 -0.13182E-01 -0.12820E-01
 -0.10470E-01 -0.56665E-02  0.15260E-02  0.98968E-02  0.20005E-01  0.32239E-01
  0.45817E-01  0.58959E-01  0.69741E-01  0.76102E-01  0.75824E-01  0.69338E-01
  0.57147E-01  0.40606E-01  0.23079E-01  0.85936E-02 -0.18761E-02 -0.82250E-02
 -0.11344E-01 -0.11057E-01 -0.86909E-02 -0.51135E-02 -0.97223E-03  0.31525E-02
  0.79810E-02  0.13340E-01  0.18879E-01  0.24215E-01  0.33947E-01  0.34016E-01
  0.30788E-01  0.24879E-01  0.17405E-01  0.94144E-02  0.20254E-02 -0.38370E-02
 -0.79827E-02 -0.10300E-01 -0.10159E-01 -0.86192E-02 -0.50061E-02  0.12388E-02
  0.87095E-02  0.17371E-01  0.28218E-01  0.40623E-01  0.52714E-01  0.63193E-01
  0.70435E-01  0.72157E-01  0.67478E-01  0.56962E-01  0.41653E-01  0.24199E-01
  0.84348E-02 -0.25562E-02 -0.98054E-02 -0.13542E-01 -0.13069E-01 -0.10269E-01
 -0.63033E-02 -0.18197E-02  0.28052E-02  0.80014E-02  0.13413E-01  0.18932E-01
  0.24307E-01  0.30105E-01  0.35998E-01  0.32809E-01  0.26502E-01  0.19162E-01
  0.11619E-01  0.49970E-02 -0.90954E-03 -0.51774E-02 -0.74806E-02 -0.81527E-02
 -0.67480E-02 -0.36573E-02  0.97279E-03  0.74336E-02  0.15319E-01  0.24879E-01
  0.35593E-01  0.46541E-01  0.56577E-01  0.64532E-01  0.67573E-01  0.63802E-01
  0.53734E-01  0.39785E-01  0.23314E-01  0.73802E-02 -0.46257E-02 -0.12457E-01
 -0.16292E-01 -0.16064E-01 -0.12998E-01 -0.83652E-02 -0.34426E-02  0.19092E-02
  0.75134E-02  0.13211E-01  0.18766E-01  0.24229E-01  0.30364E-01  0.35147E-01
  0.33393E-01  0.27276E-01  0.19580E-01  0.11609E-01  0.48831E-02  0.11558E-03
 -0.36186E-02 -0.64061E-02 -0.74845E-02 -0.69086E-02 -0.32266E-02  0.11576E-02
  0.63105E-02  0.13008E-01  0.21383E-01  0.30258E-01  0.39276E-01  0.48963E-01
  0.57100E-01  0.61010E-01  0.57992E-01  0.48243E-01  0.35239E-01  0.20773E-01
  0.61574E-02 -0.67627E-02 -0.15516E-01 -0.19715E-01 -0.19369E-01 -0.16241E-01
 -0.11247E-01 -0.56064E-02 -0.90705E-04  0.58595E-02  0.12267E-01  0.18270E-01
  0.23998E-01  0.30064E-01  0.34961E-01  0.36602E-01  0.19790E-01  0.11354E-01
  0.39717E-02 -0.14030E-02 -0.52702E-02 -0.72353E-02 -0.83241E-02 -0.81852E-02
 -0.65533E-02 -0.28668E-02  0.18328E-02  0.64053E-02  0.12718E-01  0.19637E-01
  0.25779E-01  0.31815E-01  0.37911E-01  0.40904E-01  0.39386E-01  0.33143E-01
  0.22907E-01  0.11349E-01 -0.43774E-03 -0.12077E-01 -0.22514E-01 -0.28876E-01
 -0.29226E-01 -0.25065E-01 -0.18808E-01 -0.11836E-01 -0.43259E-02  0.25357E-02
  0.86734E-02  0.14981E-01  0.20504E-01  0.25858E-01  0.31046E-01  0.34137E-01
  0.32609E-01  0.27287E-01  0.11496E-01  0.33903E-02 -0.26660E-02 -0.64124E-02
 -0.86376E-02 -0.95252E-02 -0.90343E-02 -0.78209E-02 -0.52868E-02 -0.12626E-02
  0.31375E-02  0.86101E-02  0.14383E-01  0.20152E-01  0.25383E-01  0.30601E-01
  0.33255E-01  0.31849E-01  0.26768E-01  0.18265E-01  0.79172E-02 -0.26578E-02
 -0.12913E-01 -0.22635E-01 -0.30057E-01 -0.32246E-01 -0.29456E-01 -0.23146E-01
 -0.15289E-01 -0.70298E-02  0.49617E-03  0.68174E-02  0.13097E-01  0.18997E-01
  0.23260E-01  0.27670E-01  0.31798E-01  0.32080E-01  0.27395E-01  0.20043E-01
  0.41613E-02 -0.26891E-02 -0.66465E-02 -0.93555E-02 -0.10658E-01 -0.10478E-01
 -0.92856E-02 -0.72597E-02 -0.39458E-02  0.25163E-03  0.52771E-02  0.10366E-01
  0.15219E-01  0.19633E-01  0.23572E-01  0.26110E-01  0.24834E-01  0.20176E-01
  0.13203E-01  0.40131E-02 -0.58108E-02 -0.15178E-01 -0.23913E-01 -0.30742E-01
 -0.33626E-01 -0.31830E-01 -0.26366E-01 -0.18540E-01 -0.95137E-02 -0.93539E-03
  0.58177E-02  0.11731E-01  0.17318E-01  0.21672E-01  0.24614E-01  0.27528E-01
  0.29427E-01  0.26926E-01  0.20136E-01  0.12167E-01 -0.15563E-02 -0.63037E-02
 -0.94204E-02 -0.11569E-01 -0.12133E-01 -0.11354E-01 -0.94451E-02 -0.67503E-02
 -0.27031E-02  0.16199E-02  0.63310E-02  0.10714E-01  0.14302E-01  0.17026E-01
  0.18732E-01  0.17436E-01  0.13745E-01  0.80169E-02  0.11763E-03 -0.90832E-02
 -0.18000E-01 -0.25330E-01 -0.31173E-01 -0.34034E-01 -0.32678E-01 -0.27479E-01
 -0.20042E-01 -0.11185E-01 -0.24111E-02  0.47689E-02  0.10697E-01  0.15733E-01
  0.20483E-01  0.22964E-01  0.24386E-01  0.25463E-01  0.24440E-01  0.19687E-01
  0.12547E-01  0.53166E-02 -0.53233E-02 -0.84988E-02 -0.10683E-01 -0.11901E-01
 -0.12601E-01 -0.11398E-01 -0.90833E-02 -0.55068E-02 -0.16349E-02  0.19488E-02
  0.59560E-02  0.96290E-02  0.11891E-01  0.12252E-01  0.10926E-01  0.78798E-02
  0.30117E-02 -0.38782E-02 -0.12064E-01 -0.19775E-01 -0.26055E-01 -0.31190E-01
 -0.33720E-01 -0.32343E-01 -0.27759E-01 -0.20407E-01 -0.12129E-01 -0.38144E-02
  0.32819E-02  0.91899E-02  0.14014E-01  0.17679E-01  0.20170E-01  0.21301E-01
  0.21627E-01  0.20866E-01  0.17837E-01  0.12428E-01  0.60239E-02 -0.11184E-03
 -0.74184E-02 -0.94507E-02 -0.10474E-01 -0.11380E-01 -0.11657E-01 -0.99924E-02
 -0.67784E-02 -0.35890E-02 -0.11761E-02  0.15566E-02  0.52486E-02  0.78985E-02
  0.79918E-02  0.61994E-02  0.31821E-02 -0.42651E-03 -0.60858E-02 -0.13334E-01
 -0.20111E-01 -0.25406E-01 -0.29686E-01 -0.31879E-01 -0.30820E-01 -0.26490E-01
 -0.20200E-01 -0.12596E-01 -0.54221E-02  0.11150E-02  0.71319E-02  0.11788E-01
  0.14495E-01  0.15506E-01  0.16455E-01  0.16418E-01  0.15596E-01  0.13629E-01
  0.10362E-01  0.54560E-02  0.55659E-03 -0.38866E-02 -0.83436E-02 -0.88487E-02
 -0.91771E-02 -0.95097E-02 -0.89709E-02 -0.68467E-02 -0.39289E-02 -0.22673E-02
 -0.59503E-03  0.20101E-02  0.42201E-02  0.51082E-02  0.32605E-02  0.43369E-03
 -0.25090E-02 -0.65755E-02 -0.12943E-01 -0.18805E-01 -0.23135E-01 -0.26070E-01
 -0.28130E-01 -0.27152E-01 -0.23155E-01 -0.18282E-01 -0.12225E-01 -0.56449E-02
 -0.16504E-03  0.44862E-02  0.94923E-02  0.11360E-01  0.11401E-01  0.10822E-01
  0.10271E-01  0.88007E-02  0.75573E-02  0.62101E-02  0.34376E-02 -0.19410E-03
 -0.33945E-02 -0.64657E-02 -0.82368E-02 -0.77422E-02 -0.74134E-02 -0.67951E-02
 -0.54877E-02 -0.36375E-02 -0.23165E-02 -0.95320E-03  0.54024E-03  0.16871E-02
  0.18617E-02  0.12804E-02 -0.91519E-03 -0.36465E-02 -0.69594E-02 -0.11068E-01
 -0.16181E-01 -0.19233E-01 -0.20910E-01 -0.22180E-01 -0.21288E-01 -0.17752E-01
 -0.13949E-01 -0.95822E-02 -0.43696E-02  0.59513E-03  0.35998E-02  0.62195E-02
  0.73420E-02  0.65979E-02  0.55391E-02  0.44309E-02  0.26137E-02  0.91021E-03
 -0.77458E-04 -0.86642E-03 -0.27552E-02 -0.45345E-02 -0.59092E-02 -0.73273E-02
 -0.65883E-02 -0.54174E-02 -0.40795E-02 -0.29082E-02 -0.16695E-02 -0.12391E-02
 -0.53507E-03  0.42991E-03  0.84672E-03  0.14217E-03 -0.11668E-02 -0.26255E-02
 -0.46009E-02 -0.71344E-02 -0.10065E-01 -0.12617E-01 -0.14550E-01 -0.15060E-01
 -0.15374E-01 -0.14614E-01 -0.11787E-01 -0.84945E-02 -0.52063E-02 -0.13543E-02
  0.25458E-02  0.44009E-02  0.42871E-02  0.30675E-02  0.96837E-03 -0.89103E-03
 -0.20174E-02 -0.36135E-02 -0.55421E-02 -0.63819E-02 -0.62873E-02 -0.66480E-02
 -0.68601E-02 -0.65668E-02 -0.65072E-02 -0.69799E-02 -0.28207E-02 -0.12992E-02
  0.30042E-03  0.15591E-02  0.17060E-02  0.16209E-02  0.18580E-02  0.15839E-02
 -0.70425E-04 -0.22391E-02 -0.31443E-02 -0.48406E-02 -0.69730E-02 -0.85730E-02
 -0.96035E-02 -0.98822E-02 -0.97808E-02 -0.92865E-02 -0.75988E-02 -0.51530E-02
 -0.20504E-02  0.82809E-03  0.28976E-02  0.49088E-02  0.55375E-02  0.35273E-02
  0.12913E-03 -0.39811E-02 -0.78625E-02 -0.10316E-01 -0.11675E-01 -0.12806E-01
 -0.12728E-01 -0.11974E-01 -0.10966E-01 -0.10152E-01 -0.83999E-02 -0.68038E-02
 -0.56023E-02 -0.43929E-02  0.16851E-02  0.32343E-02  0.51363E-02  0.62119E-02
  0.58547E-02  0.51027E-02  0.41432E-02  0.19071E-02 -0.96568E-03 -0.31614E-02
 -0.48142E-02 -0.64590E-02 -0.78108E-02 -0.76130E-02 -0.64449E-02 -0.53795E-02
 -0.43509E-02 -0.22949E-02  0.94551E-03  0.46193E-02  0.71666E-02  0.90943E-02
  0.88522E-02  0.71780E-02  0.36661E-02 -0.14924E-02 -0.70784E-02 -0.13229E-01
 -0.17974E-01 -0.20815E-01 -0.21517E-01 -0.20258E-01 -0.18102E-01 -0.15736E-01
 -0.13707E-01 -0.11022E-01 -0.87260E-02 -0.59016E-02 -0.28833E-02 -0.59145E-04
  0.64222E-02  0.86037E-02  0.10396E-01  0.10585E-01  0.95509E-02  0.78088E-02
  0.50290E-02  0.10456E-02 -0.24306E-02 -0.47296E-02 -0.64155E-02 -0.73102E-02
 -0.67577E-02 -0.46845E-02 -0.25392E-02 -0.73737E-03  0.16953E-02  0.58753E-02
  0.97711E-02  0.12334E-01  0.14051E-01  0.13471E-01  0.10534E-01  0.49243E-02
 -0.17631E-02 -0.93279E-02 -0.17109E-01 -0.24320E-01 -0.29129E-01 -0.31142E-01
 -0.29692E-01 -0.26376E-01 -0.22608E-01 -0.18623E-01 -0.14624E-01 -0.11027E-01
 -0.73745E-02 -0.31987E-02  0.14273E-02  0.46444E-02  0.12485E-01  0.14452E-01
  0.15239E-01  0.14167E-01  0.11947E-01  0.80516E-02  0.34133E-02 -0.88620E-03
 -0.46622E-02 -0.68640E-02 -0.78774E-02 -0.67578E-02 -0.44350E-02 -0.15540E-02
  0.15992E-02  0.53079E-02  0.94800E-02  0.13454E-01  0.15976E-01  0.17265E-01
  0.16963E-01  0.14242E-01  0.77714E-02 -0.45915E-03 -0.10297E-01 -0.20804E-01
 -0.30380E-01 -0.37013E-01 -0.40487E-01 -0.40198E-01 -0.36631E-01 -0.31891E-01
 -0.26192E-01 -0.19954E-01 -0.13762E-01 -0.86398E-02 -0.35697E-02  0.18079E-02
  0.66580E-02  0.10199E-01  0.19518E-01  0.20255E-01  0.19610E-01  0.16956E-01
  0.12361E-01  0.61431E-02  0.61505E-03 -0.37865E-02 -0.72483E-02 -0.87499E-02
 -0.75500E-02 -0.47846E-02 -0.16283E-02  0.23378E-02  0.70645E-02  0.11714E-01
  0.15971E-01  0.19112E-01  0.20282E-01  0.19671E-01  0.17163E-01  0.11167E-01
  0.18461E-02 -0.97862E-02 -0.22982E-01 -0.35858E-01 -0.45144E-01 -0.50560E-01
 -0.51857E-01 -0.48881E-01 -0.43092E-01 -0.35851E-01 -0.27039E-01 -0.18603E-01
 -0.10475E-01 -0.35305E-02  0.27699E-02  0.82423E-02  0.13436E-01  0.17323E-01
  0.25613E-01  0.25434E-01  0.23577E-01  0.18717E-01  0.10890E-01  0.32989E-02
 -0.26144E-02 -0.69399E-02 -0.10209E-01 -0.95649E-02 -0.63094E-02 -0.24375E-02
  0.14997E-02  0.68654E-02  0.12605E-01  0.17431E-01  0.21259E-01  0.23443E-01
  0.23358E-01  0.20608E-01  0.14436E-01  0.41720E-02 -0.89447E-02 -0.24451E-01
 -0.40786E-01 -0.54035E-01 -0.62086E-01 -0.65263E-01 -0.62900E-01 -0.56122E-01
 -0.46252E-01 -0.35284E-01 -0.24126E-01 -0.14042E-01 -0.45433E-02  0.37990E-02
  0.97935E-02  0.15410E-01  0.21114E-01  0.24648E-01  0.32135E-01  0.30726E-01
  0.26116E-01  0.17442E-01  0.77213E-02 -0.52732E-03 -0.66361E-02 -0.11240E-01
 -0.12452E-01 -0.99143E-02 -0.54455E-02 -0.54414E-03  0.51070E-02  0.11767E-01
  0.17449E-01  0.21956E-01  0.25303E-01  0.25769E-01  0.23441E-01  0.17457E-01