       #
       # Generated by the Wannier90 code http://www.wannier.org
       # On 27Oct2014 at 00:15:00 
       #
CRYSTAL
PRIMVEC
  -2.8400941   0.0000000   2.8400941
   0.0000000   2.8400941   2.8400941
  -2.8400941   2.8400941   0.0000000
CONVVEC
  -2.8400941   0.0000000   2.8400941
   0.0000000   2.8400941   2.8400941
  -2.8400941   2.8400941   0.0000000
PRIMCOORD
     2  1
Ga      0.0000000   0.0000000   0.0000000
As     -1.4200470   1.4200470   1.4200470


BEGIN_BLOCK_DATAGRID_3D
3D_field
BEGIN_DATAGRID_3D_UNKNOWN
    40    40    40
    5.964198   -5.964198   -5.964198
  -5.5381835   0.0000000   5.5381835
   0.0000000   5.5381835   5.5381835
  -5.5381835   5.5381835   0.0000000
 -0.88112E-02 -0.11943E-01 -0.16641E-01 -0.21098E-01 -0.23541E-01 -0.24564E-01
 -0.23363E-01 -0.20746E-01 -0.16655E-01 -0.12144E-01 -0.85429E-02 -0.71418E-02
 -0.68075E-02 -0.71337E-02 -0.87148E-02 -0.12174E-01 -0.16505E-01 -0.20631E-01
 -0.23407E-01 -0.24605E-01 -0.23680E-01 -0.20947E-01 -0.16614E-01 -0.12226E-01
 -0.88997E-02 -0.67703E-02 -0.44963E-02 -0.26119E-02 -0.17802E-02 -0.22441E-02
 -0.32122E-02 -0.40142E-02 -0.42729E-02 -0.40049E-02 -0.33135E-02 -0.21739E-02
 -0.19188E-02 -0.29383E-02 -0.46470E-02 -0.66133E-02  0.36646E-02 -0.59413E-03
 -0.56831E-02 -0.11160E-01 -0.15292E-01 -0.17726E-01 -0.17899E-01 -0.15933E-01
 -0.13859E-01 -0.11558E-01 -0.97750E-02 -0.90676E-02 -0.89757E-02 -0.98089E-02
 -0.11671E-01 -0.13688E-01 -0.15950E-01 -0.17868E-01 -0.17811E-01 -0.15202E-01
 -0.10801E-01 -0.57664E-02 -0.39087E-03  0.37762E-02  0.60923E-02  0.76052E-02
  0.83645E-02  0.85203E-02  0.71708E-02  0.54817E-02  0.43514E-02  0.40655E-02
  0.40041E-02  0.43674E-02  0.55770E-02  0.71226E-02  0.85336E-02  0.84712E-02
  0.74869E-02  0.62116E-02  0.16363E-01  0.11299E-01  0.54357E-02 -0.84598E-03
 -0.63126E-02 -0.96265E-02 -0.10740E-01 -0.10660E-01 -0.10493E-01 -0.99900E-02
 -0.94370E-02 -0.92301E-02 -0.94115E-02 -0.99371E-02 -0.10625E-01 -0.10729E-01
 -0.10645E-01 -0.96358E-02 -0.61766E-02 -0.81017E-03  0.53855E-02  0.11359E-01
  0.16414E-01  0.20767E-01  0.23368E-01  0.24110E-01  0.22899E-01  0.20817E-01
  0.18877E-01  0.17795E-01  0.17580E-01  0.17479E-01  0.17541E-01  0.17840E-01
  0.19150E-01  0.21010E-01  0.22873E-01  0.24161E-01  0.23557E-01  0.20936E-01
  0.29459E-01  0.23073E-01  0.15954E-01  0.85986E-02  0.23109E-02 -0.20069E-02
 -0.47428E-02 -0.62803E-02 -0.72158E-02 -0.78806E-02 -0.81547E-02 -0.81492E-02
 -0.79421E-02 -0.74305E-02 -0.63024E-02 -0.46749E-02 -0.22394E-02  0.21639E-02
  0.85336E-02  0.15988E-01  0.22969E-01  0.29495E-01  0.35147E-01  0.39583E-01
  0.41614E-01  0.40479E-01  0.38265E-01  0.36709E-01  0.36083E-01  0.36154E-01
  0.36191E-01  0.36409E-01  0.36218E-01  0.36326E-01  0.36508E-01  0.38321E-01
  0.40621E-01  0.41628E-01  0.39700E-01  0.35060E-01  0.41465E-01  0.33167E-01
  0.24365E-01  0.15986E-01  0.89726E-02  0.26387E-02 -0.10929E-02 -0.31767E-02
 -0.45220E-02 -0.60076E-02 -0.64904E-02 -0.59258E-02 -0.46867E-02 -0.32128E-02
 -0.97606E-03  0.29872E-02  0.89249E-02  0.15944E-01  0.24249E-01  0.33057E-01
  0.41616E-01  0.48273E-01  0.53654E-01  0.56723E-01  0.56997E-01  0.56076E-01
  0.56043E-01  0.57287E-01  0.59316E-01  0.60516E-01  0.61206E-01  0.60684E-01
  0.59288E-01  0.57335E-01  0.55812E-01  0.55872E-01  0.57094E-01  0.56970E-01
  0.53809E-01  0.48328E-01  0.49859E-01  0.39413E-01  0.29946E-01  0.21198E-01
  0.13112E-01  0.63230E-02  0.18283E-02 -0.92070E-03 -0.31004E-02 -0.48540E-02
 -0.46640E-02 -0.32208E-02 -0.97370E-03  0.19188E-02  0.62545E-02  0.13070E-01
  0.21073E-01  0.29851E-01  0.39559E-01  0.49856E-01  0.58065E-01  0.63672E-01
  0.67365E-01  0.69185E-01  0.70341E-01  0.72646E-01  0.77461E-01  0.83200E-01
  0.88700E-01  0.92163E-01  0.92128E-01  0.88708E-01  0.83221E-01  0.77530E-01
  0.72716E-01  0.70232E-01  0.69405E-01  0.67446E-01  0.63703E-01  0.57969E-01
  0.51485E-01  0.41234E-01  0.31506E-01  0.22798E-01  0.14629E-01  0.81468E-02
  0.36736E-02  0.31356E-03 -0.18257E-02 -0.26120E-02 -0.18040E-02  0.40342E-03
  0.36802E-02  0.81358E-02  0.14821E-01  0.22968E-01  0.31478E-01  0.40949E-01
  0.51673E-01  0.60998E-01  0.67687E-01  0.72270E-01  0.75743E-01  0.79357E-01
  0.84344E-01  0.92807E-01  0.10344E+00  0.11450E+00  0.12386E+00  0.12755E+00
  0.12371E+00  0.11445E+00  0.10355E+00  0.92824E-01  0.84238E-01  0.79196E-01
  0.75838E-01  0.72384E-01  0.67636E-01  0.60935E-01  0.47286E-01  0.37782E-01
  0.29242E-01  0.21525E-01  0.14151E-01  0.88050E-02  0.40829E-02  0.94454E-03
 -0.78883E-04  0.86209E-04  0.11638E-02  0.42872E-02  0.87515E-02  0.14231E-01
  0.21469E-01  0.29202E-01  0.37956E-01  0.47383E-01  0.57035E-01  0.64536E-01
  0.70285E-01  0.76110E-01  0.81775E-01  0.89009E-01  0.10037E+00  0.11606E+00
  0.13274E+00  0.14838E+00  0.15814E+00  0.15804E+00  0.14824E+00  0.13273E+00
  0.11590E+00  0.10047E+00  0.89227E-01  0.81848E-01  0.75901E-01  0.70261E-01
  0.64428E-01  0.57100E-01  0.40076E-01  0.31902E-01  0.24382E-01  0.18165E-01
  0.12295E-01  0.71943E-02  0.31550E-02  0.15258E-02  0.11185E-02  0.13196E-02
  0.33076E-02  0.72440E-02  0.12288E-01  0.18053E-01  0.24382E-01  0.31753E-01
  0.40266E-01  0.48991E-01  0.56802E-01  0.63167E-01  0.69794E-01  0.76967E-01
  0.85594E-01  0.98495E-01  0.11671E+00  0.13802E+00  0.15911E+00  0.17501E+00
  0.18137E+00  0.17493E+00  0.15893E+00  0.13799E+00  0.11665E+00  0.98730E-01
  0.85703E-01  0.76830E-01  0.69774E-01  0.63272E-01  0.56587E-01  0.48985E-01
  0.32364E-01  0.25687E-01  0.19429E-01  0.14096E-01  0.90248E-02  0.42831E-02
  0.12549E-02  0.26807E-03  0.17785E-03  0.12877E-02  0.44268E-02  0.90918E-02
  0.14010E-01  0.19552E-01  0.25742E-01  0.32408E-01  0.39494E-01  0.46610E-01
  0.52665E-01  0.59008E-01  0.65970E-01  0.74888E-01  0.87612E-01  0.10544E+00
  0.12828E+00  0.15240E+00  0.17333E+00  0.18585E+00  0.18598E+00  0.17346E+00
  0.15236E+00  0.12816E+00  0.10557E+00  0.87382E-01  0.75009E-01  0.65979E-01
  0.58885E-01  0.52553E-01  0.46527E-01  0.39580E-01  0.25152E-01  0.19392E-01
  0.13947E-01  0.93281E-02  0.48527E-02  0.12413E-02 -0.85939E-03 -0.15048E-02
 -0.91085E-03  0.12785E-02  0.50873E-02  0.91803E-02  0.14021E-01  0.19290E-01
  0.25028E-01  0.30378E-01  0.35568E-01  0.40591E-01  0.46054E-01  0.52089E-01
  0.59647E-01  0.70431E-01  0.86172E-01  0.10642E+00  0.12995E+00  0.15308E+00
  0.17032E+00  0.17698E+00  0.17032E+00  0.15307E+00  0.12981E+00  0.10656E+00
  0.86029E-01  0.70497E-01  0.59734E-01  0.52223E-01  0.45810E-01  0.40528E-01
  0.35533E-01  0.30358E-01  0.17425E-01  0.12703E-01  0.80742E-02  0.44900E-02
  0.13121E-02 -0.13724E-02 -0.27030E-02 -0.26226E-02 -0.13337E-02  0.14077E-02
  0.44091E-02  0.81170E-02  0.12689E-01  0.17400E-01  0.21330E-01  0.24704E-01
  0.28333E-01  0.32030E-01  0.37007E-01  0.42655E-01  0.50677E-01  0.62415E-01
  0.78329E-01  0.97416E-01  0.11839E+00  0.13712E+00  0.14822E+00  0.14816E+00
  0.13728E+00  0.11845E+00  0.97481E-01  0.78325E-01  0.62331E-01  0.50800E-01
  0.42821E-01  0.36824E-01  0.32058E-01  0.28323E-01  0.24774E-01  0.21436E-01
  0.10068E-01  0.66831E-02  0.29576E-02  0.39869E-03 -0.20162E-02 -0.40890E-02
 -0.49518E-02 -0.41314E-02 -0.20539E-02  0.43327E-03  0.29081E-02  0.66556E-02
  0.10054E-01  0.13087E-01  0.15279E-01  0.17340E-01  0.20023E-01  0.22953E-01
  0.26047E-01  0.30233E-01  0.37085E-01  0.47645E-01  0.60858E-01  0.76652E-01
  0.92640E-01  0.10436E+00  0.10831E+00  0.10436E+00  0.92464E-01  0.76643E-01
  0.60941E-01  0.47495E-01  0.36830E-01  0.30160E-01  0.26173E-01  0.23018E-01
  0.19721E-01  0.17439E-01  0.15300E-01  0.13160E-01  0.45268E-02  0.18232E-02
 -0.12057E-02 -0.34343E-02 -0.56504E-02 -0.72368E-02 -0.71566E-02 -0.54879E-02
 -0.34392E-02 -0.12013E-02  0.18044E-02  0.45605E-02  0.62088E-02  0.72118E-02
  0.86981E-02  0.98798E-02  0.10414E-01  0.11094E-01  0.11531E-01  0.13234E-01
  0.17609E-01  0.24403E-01  0.33262E-01  0.43096E-01  0.52050E-01  0.56678E-01
  0.56502E-01  0.51851E-01  0.43096E-01  0.33410E-01  0.24334E-01  0.17633E-01
  0.13129E-01  0.11527E-01  0.11207E-01  0.10484E-01  0.97576E-02  0.87856E-02
  0.72452E-02  0.62427E-02 -0.25046E-03 -0.29601E-02 -0.49526E-02 -0.63641E-02
 -0.82314E-02 -0.91307E-02 -0.83800E-02 -0.65568E-02 -0.48863E-02 -0.29366E-02
 -0.30797E-03  0.10284E-02  0.97345E-03  0.10745E-02  0.13785E-02  0.27176E-03
 -0.18836E-02 -0.43346E-02 -0.67294E-02 -0.78307E-02 -0.78370E-02 -0.70398E-02
 -0.49162E-02 -0.18550E-02  0.49390E-03  0.12443E-02  0.50117E-03 -0.16878E-02
 -0.50721E-02 -0.68936E-02 -0.77507E-02 -0.77634E-02 -0.64776E-02 -0.43504E-02
 -0.20333E-02  0.36041E-03  0.14509E-02  0.10628E-02  0.10664E-02  0.12029E-02
 -0.46881E-02 -0.64063E-02 -0.74307E-02 -0.85162E-02 -0.99146E-02 -0.10014E-01
 -0.85073E-02 -0.74516E-02 -0.65992E-02 -0.49325E-02 -0.34113E-02 -0.36838E-02
 -0.47777E-02 -0.58397E-02 -0.79781E-02 -0.11979E-01 -0.16762E-01 -0.21863E-01
 -0.27602E-01 -0.33860E-01 -0.40489E-01 -0.47078E-01 -0.51477E-01 -0.53412E-01
 -0.54382E-01 -0.54527E-01 -0.53539E-01 -0.51507E-01 -0.47024E-01 -0.40566E-01
 -0.33765E-01 -0.27680E-01 -0.21771E-01 -0.16778E-01 -0.11964E-01 -0.79146E-02
 -0.56920E-02 -0.47442E-02 -0.36107E-02 -0.34677E-02 -0.77330E-02 -0.83480E-02
 -0.87302E-02 -0.99683E-02 -0.10548E-01 -0.99088E-02 -0.87758E-02 -0.82019E-02
 -0.77717E-02 -0.70086E-02 -0.67353E-02 -0.87026E-02 -0.10595E-01 -0.13535E-01
 -0.18599E-01 -0.25279E-01 -0.32869E-01 -0.41931E-01 -0.52950E-01 -0.66395E-01
 -0.80413E-01 -0.91968E-01 -0.98809E-01 -0.10119E+00 -0.10179E+00 -0.10140E+00
 -0.98708E-01 -0.92049E-01 -0.80230E-01 -0.66373E-01 -0.53125E-01 -0.41744E-01
 -0.32736E-01 -0.25289E-01 -0.18743E-01 -0.13565E-01 -0.10473E-01 -0.83829E-02
 -0.69323E-02 -0.67840E-02 -0.75744E-02 -0.84861E-02 -0.91572E-02 -0.99609E-02
 -0.98535E-02 -0.92504E-02 -0.83797E-02 -0.76782E-02 -0.77042E-02 -0.82351E-02
 -0.99327E-02 -0.13075E-01 -0.16457E-01 -0.22083E-01 -0.29885E-01 -0.38783E-01
 -0.50294E-01 -0.65484E-01 -0.83715E-01 -0.10345E+00 -0.12072E+00 -0.13033E+00
 -0.13273E+00 -0.13182E+00 -0.13173E+00 -0.13266E+00 -0.13035E+00 -0.12068E+00
 -0.10347E+00 -0.83674E-01 -0.65501E-01 -0.50147E-01 -0.38996E-01 -0.29824E-01
 -0.22156E-01 -0.16424E-01 -0.13000E-01 -0.10144E-01 -0.82526E-02 -0.76709E-02
 -0.64011E-02 -0.75139E-02 -0.80328E-02 -0.81594E-02 -0.82239E-02 -0.74305E-02
 -0.63870E-02 -0.64131E-02 -0.76964E-02 -0.10090E-01 -0.13069E-01 -0.17023E-01
 -0.23039E-01 -0.31536E-01 -0.41626E-01 -0.53606E-01 -0.69905E-01 -0.90901E-01
 -0.11503E+00 -0.13688E+00 -0.14879E+00 -0.14860E+00 -0.14310E+00 -0.14030E+00
 -0.14308E+00 -0.14864E+00 -0.14873E+00 -0.13678E+00 -0.11530E+00 -0.91000E-01
 -0.69720E-01 -0.53536E-01 -0.41421E-01 -0.31441E-01 -0.22920E-01 -0.16928E-01
 -0.13042E-01 -0.10009E-01 -0.75188E-02 -0.64156E-02 -0.42663E-02 -0.51181E-02
 -0.53447E-02 -0.53294E-02 -0.51673E-02 -0.42690E-02 -0.36235E-02 -0.51110E-02
 -0.81147E-02 -0.11932E-01 -0.15931E-01 -0.21510E-01 -0.29905E-01 -0.40206E-01
 -0.52789E-01 -0.68450E-01 -0.89266E-01 -0.11454E+00 -0.14028E+00 -0.15516E+00
 -0.15358E+00 -0.14239E+00 -0.13369E+00 -0.13358E+00 -0.14248E+00 -0.15361E+00
 -0.15529E+00 -0.14019E+00 -0.11481E+00 -0.89037E-01 -0.68288E-01 -0.52701E-01
 -0.40362E-01 -0.30009E-01 -0.21451E-01 -0.15716E-01 -0.11824E-01 -0.81589E-02
 -0.50069E-02 -0.35617E-02 -0.78327E-03 -0.14863E-02 -0.14094E-02 -0.15881E-02
 -0.87137E-03 -0.80714E-04 -0.76497E-03 -0.39219E-02 -0.79592E-02 -0.12676E-01
 -0.18299E-01 -0.25943E-01 -0.35798E-01 -0.47685E-01 -0.62614E-01 -0.81690E-01
 -0.10575E+00 -0.13199E+00 -0.15098E+00 -0.15143E+00 -0.13610E+00 -0.12120E+00
 -0.11566E+00 -0.12121E+00 -0.13619E+00 -0.15140E+00 -0.15094E+00 -0.13208E+00
 -0.10558E+00 -0.81613E-01 -0.62421E-01 -0.47613E-01 -0.35871E-01 -0.25873E-01
 -0.18248E-01 -0.12700E-01 -0.80384E-02 -0.38540E-02 -0.91135E-03  0.31408E-04
  0.41776E-02  0.38713E-02  0.38326E-02  0.41055E-02  0.49645E-02  0.49438E-02
  0.22146E-02 -0.18012E-02 -0.69765E-02 -0.13110E-01 -0.20614E-01 -0.29511E-01
 -0.40086E-01 -0.53328E-01 -0.69983E-01 -0.90650E-01 -0.11516E+00 -0.13710E+00
 -0.14326E+00 -0.12913E+00 -0.10818E+00 -0.95956E-01 -0.95916E-01 -0.10832E+00
 -0.12924E+00 -0.14342E+00 -0.13693E+00 -0.11533E+00 -0.90964E-01 -0.70021E-01
 -0.53144E-01 -0.40016E-01 -0.29493E-01 -0.20560E-01 -0.13043E-01 -0.68862E-02
 -0.21237E-02  0.23506E-02  0.47766E-02  0.49221E-02  0.11507E-01  0.11491E-01
  0.11434E-01  0.11470E-01  0.11432E-01  0.94837E-02  0.52408E-02 -0.17978E-03
 -0.61755E-02 -0.13588E-01 -0.22472E-01 -0.31698E-01 -0.42725E-01 -0.56298E-01
 -0.72962E-01 -0.92727E-01 -0.11460E+00 -0.12788E+00 -0.12156E+00 -0.99761E-01
 -0.80604E-01 -0.73684E-01 -0.80519E-01 -0.99804E-01 -0.12157E+00 -0.12786E+00
 -0.11442E+00 -0.92762E-01 -0.72899E-01 -0.56392E-01 -0.42917E-01 -0.31895E-01
 -0.22554E-01 -0.13697E-01 -0.62322E-02  0.63385E-04  0.54033E-02  0.97028E-02
  0.11583E-01  0.11567E-01  0.19714E-01  0.19875E-01  0.19655E-01  0.19167E-01
  0.17364E-01  0.12997E-01  0.70831E-02  0.10045E-02 -0.55379E-02 -0.13389E-01
 -0.22424E-01 -0.32223E-01 -0.42710E-01 -0.55180E-01 -0.69535E-01 -0.86859E-01
 -0.10350E+00 -0.10791E+00 -0.94854E-01 -0.74039E-01 -0.60469E-01 -0.60660E-01
 -0.73998E-01 -0.94805E-01 -0.10784E+00 -0.10329E+00 -0.86916E-01 -0.69426E-01
 -0.55201E-01 -0.42738E-01 -0.32156E-01 -0.22286E-01 -0.13506E-01 -0.56739E-02
  0.95702E-03  0.71382E-02  0.13083E-01  0.17283E-01  0.19221E-01  0.19465E-01
  0.27410E-01  0.27124E-01  0.26686E-01  0.24843E-01  0.20813E-01  0.14928E-01
  0.85116E-02  0.23668E-02 -0.39333E-02 -0.11657E-01 -0.20589E-01 -0.29493E-01
 -0.38700E-01 -0.48761E-01 -0.60241E-01 -0.73319E-01 -0.83511E-01 -0.82510E-01
 -0.69659E-01 -0.55519E-01 -0.49643E-01 -0.55522E-01 -0.69832E-01 -0.82519E-01
 -0.83526E-01 -0.73516E-01 -0.60283E-01 -0.48856E-01 -0.38649E-01 -0.29685E-01
 -0.20617E-01 -0.11495E-01 -0.38827E-02  0.21563E-02  0.85764E-02  0.15016E-01
  0.21025E-01  0.25014E-01  0.26582E-01  0.27147E-01  0.33226E-01  0.32616E-01
  0.30694E-01  0.27263E-01  0.22013E-01  0.15993E-01  0.97615E-02  0.39179E-02
 -0.22748E-02 -0.96955E-02 -0.17461E-01 -0.24562E-01 -0.30842E-01 -0.38125E-01
 -0.45716E-01 -0.53109E-01 -0.57371E-01 -0.54920E-01 -0.47053E-01 -0.40874E-01
 -0.40792E-01 -0.47228E-01 -0.54873E-01 -0.57397E-01 -0.53286E-01 -0.45720E-01
 -0.38235E-01 -0.30834E-01 -0.24500E-01 -0.17265E-01 -0.95773E-02 -0.22657E-02
  0.39528E-02  0.97820E-02  0.15859E-01  0.21885E-01  0.27336E-01  0.30944E-01
  0.32677E-01  0.33352E-01  0.35932E-01  0.33922E-01  0.30614E-01  0.26210E-01
  0.21681E-01  0.16168E-01  0.10222E-01  0.47267E-02 -0.68845E-03 -0.69947E-02
 -0.12953E-01 -0.16995E-01 -0.20489E-01 -0.23807E-01 -0.26222E-01 -0.28723E-01
 -0.29449E-01 -0.27676E-01 -0.24362E-01 -0.23012E-01 -0.24466E-01 -0.27545E-01
 -0.29619E-01 -0.28686E-01 -0.26196E-01 -0.23819E-01 -0.20573E-01 -0.17090E-01
 -0.13063E-01 -0.71483E-02 -0.64523E-03  0.47815E-02  0.10321E-01  0.16165E-01
  0.21792E-01  0.26181E-01  0.30540E-01  0.34155E-01  0.36010E-01  0.36439E-01
  0.34091E-01  0.31014E-01  0.27015E-01  0.23699E-01  0.19965E-01  0.15076E-01
  0.10220E-01  0.61316E-02  0.17100E-02 -0.33178E-02 -0.65496E-02 -0.77601E-02
 -0.81186E-02 -0.73112E-02 -0.63099E-02 -0.52237E-02 -0.37510E-02 -0.16996E-02
 -0.65665E-03 -0.61834E-03 -0.18693E-02 -0.37957E-02 -0.54766E-02 -0.63972E-02
 -0.74565E-02 -0.78901E-02 -0.78288E-02 -0.66270E-02 -0.34015E-02  0.17198E-02
  0.60553E-02  0.10176E-01  0.15086E-01  0.20032E-01  0.23540E-01  0.27019E-01
  0.30862E-01  0.33971E-01  0.34937E-01  0.35191E-01  0.28501E-01  0.25857E-01
  0.22722E-01  0.20380E-01  0.17246E-01  0.13140E-01  0.10015E-01  0.76475E-02
  0.38662E-02  0.94754E-03  0.31910E-03  0.17036E-02  0.40488E-02  0.70915E-02
  0.10562E-01  0.14078E-01  0.17625E-01  0.19792E-01  0.20100E-01  0.19667E-01
  0.17691E-01  0.14107E-01  0.10626E-01  0.71337E-02  0.42755E-02  0.16031E-02
  0.43739E-03  0.99699E-03  0.40078E-02  0.75374E-02  0.10016E-01  0.12856E-01
  0.17177E-01  0.20544E-01  0.22913E-01  0.25592E-01  0.28616E-01  0.30071E-01
  0.30349E-01  0.30055E-01  0.22859E-01  0.20306E-01  0.18508E-01  0.16029E-01
  0.13312E-01  0.10828E-01  0.89440E-02  0.72135E-02  0.53479E-02  0.51095E-02
  0.69945E-02  0.98781E-02  0.14070E-01  0.18961E-01  0.24132E-01  0.29181E-01
  0.32587E-01  0.33796E-01  0.33899E-01  0.32823E-01  0.29391E-01  0.24137E-01
  0.18993E-01  0.14071E-01  0.99081E-02  0.68933E-02  0.51541E-02  0.52939E-02
  0.72039E-02  0.91618E-02  0.10836E-01  0.13324E-01  0.16183E-01  0.18211E-01
  0.20494E-01  0.22862E-01  0.24151E-01  0.24343E-01  0.24258E-01  0.23772E-01
  0.16758E-01  0.14983E-01  0.13294E-01  0.11345E-01  0.89531E-02  0.70955E-02
  0.54790E-02  0.48028E-02  0.56089E-02  0.82454E-02  0.11396E-01  0.15949E-01
  0.21691E-01  0.27514E-01  0.33040E-01  0.37878E-01  0.40456E-01  0.41147E-01
  0.40647E-01  0.37971E-01  0.33038E-01  0.27535E-01  0.21813E-01  0.15951E-01
  0.11311E-01  0.81924E-02  0.56201E-02  0.48894E-02  0.55516E-02  0.70939E-02
  0.90116E-02  0.11316E-01  0.13400E-01  0.15123E-01  0.16902E-01  0.18478E-01
  0.18832E-01  0.18919E-01  0.18861E-01  0.18271E-01  0.10694E-01  0.86562E-02
  0.75648E-02  0.56021E-02  0.35596E-02  0.16416E-02  0.87557E-03  0.20798E-02
  0.51088E-02  0.90528E-02  0.13401E-01  0.19467E-01  0.25565E-01  0.31087E-01
  0.36433E-01  0.40760E-01  0.42594E-01  0.42659E-01  0.40718E-01  0.36499E-01
  0.31095E-01  0.25566E-01  0.19340E-01  0.13490E-01  0.89790E-02  0.51345E-02
  0.21757E-02  0.90458E-03  0.18587E-02  0.35400E-02  0.58697E-02  0.75751E-02
  0.87710E-02  0.10524E-01  0.12230E-01  0.13345E-01  0.13436E-01  0.13520E-01
  0.13395E-01  0.12236E-01  0.41980E-02  0.24812E-02  0.11294E-02 -0.11162E-02
 -0.30314E-02 -0.43445E-02 -0.43491E-02 -0.20812E-02  0.22517E-02  0.70544E-02
  0.13161E-01  0.19787E-01  0.25833E-01  0.30860E-01  0.36101E-01  0.39377E-01
  0.40328E-01  0.39320E-01  0.35973E-01  0.31046E-01  0.25618E-01  0.19864E-01
  0.13261E-01  0.70805E-02  0.22214E-02 -0.19227E-02 -0.43378E-02 -0.43784E-02
 -0.30603E-02 -0.10418E-02  0.10575E-02  0.24938E-02  0.39010E-02  0.58014E-02
  0.75355E-02  0.81146E-02  0.81417E-02  0.82461E-02  0.74852E-02  0.57505E-02
 -0.20948E-02 -0.44282E-02 -0.69236E-02 -0.90267E-02 -0.10847E-01 -0.11649E-01
 -0.10938E-01 -0.77115E-02 -0.21999E-02  0.41310E-02  0.11128E-01  0.18336E-01
  0.24197E-01  0.29192E-01  0.33194E-01  0.35011E-01  0.34806E-01  0.33209E-01
  0.29344E-01  0.24222E-01  0.18007E-01  0.11199E-01  0.42307E-02 -0.22601E-02
 -0.75735E-02 -0.11106E-01 -0.11721E-01 -0.10788E-01 -0.91038E-02 -0.67166E-02
 -0.42719E-02 -0.21274E-02 -0.27186E-04  0.19390E-02  0.29160E-02  0.33442E-02
  0.35145E-02  0.28504E-02  0.18972E-02  0.17614E-03 -0.85203E-02 -0.11628E-01
 -0.15220E-01 -0.17658E-01 -0.19137E-01 -0.20176E-01 -0.18506E-01 -0.13480E-01
 -0.66138E-02  0.71791E-03  0.84811E-02  0.15687E-01  0.21677E-01  0.26156E-01
  0.28325E-01  0.28792E-01  0.28366E-01  0.26151E-01  0.21489E-01  0.15577E-01
  0.83282E-02  0.68449E-03 -0.65982E-02 -0.13348E-01 -0.18546E-01 -0.19969E-01
 -0.19196E-01 -0.17373E-01 -0.15263E-01 -0.11637E-01 -0.84439E-02 -0.55512E-02
 -0.33631E-02 -0.20485E-02 -0.11243E-02 -0.56616E-03 -0.95316E-03 -0.20987E-02
 -0.34123E-02 -0.54261E-02 -0.14576E-01 -0.18981E-01 -0.22824E-01 -0.25711E-01
 -0.27320E-01 -0.27702E-01 -0.24729E-01 -0.18512E-01 -0.11428E-01 -0.34117E-02
  0.45160E-02  0.11253E-01  0.16676E-01  0.20227E-01  0.22144E-01  0.22304E-01
  0.20174E-01  0.16552E-01  0.11432E-01  0.45399E-02 -0.34881E-02 -0.11459E-01
 -0.18552E-01 -0.24654E-01 -0.27686E-01 -0.27407E-01 -0.25820E-01 -0.22875E-01
 -0.19051E-01 -0.14829E-01 -0.11127E-01 -0.83662E-02 -0.64057E-02 -0.51399E-02
 -0.41812E-02 -0.40735E-02 -0.52032E-02 -0.64694E-02 -0.83036E-02 -0.11090E-01
 -0.20223E-01 -0.25021E-01 -0.29608E-01 -0.32069E-01 -0.33389E-01 -0.32885E-01
 -0.29341E-01 -0.23269E-01 -0.15807E-01 -0.77492E-02 -0.14623E-03  0.56954E-02
  0.10268E-01  0.13718E-01  0.15225E-01  0.13852E-01  0.10706E-01  0.57540E-02
  0.21317E-05 -0.74417E-02 -0.15756E-01 -0.23275E-01 -0.29385E-01 -0.32859E-01
 -0.33407E-01 -0.32196E-01 -0.29548E-01 -0.25236E-01 -0.20362E-01 -0.16091E-01
 -0.12958E-01 -0.10182E-01 -0.87126E-02 -0.75169E-02 -0.72677E-02 -0.75554E-02
 -0.88058E-02 -0.10217E-01 -0.12990E-01 -0.16283E-01 -0.23918E-01 -0.29277E-01
 -0.33294E-01 -0.35513E-01 -0.36335E-01 -0.35365E-01 -0.31962E-01 -0.25795E-01
 -0.18035E-01 -0.10414E-01 -0.38816E-02  0.11066E-02  0.49256E-02  0.71288E-02
  0.70913E-02  0.49264E-02  0.11497E-02 -0.40092E-02 -0.10433E-01 -0.18098E-01
 -0.25721E-01 -0.31943E-01 -0.35266E-01 -0.36356E-01 -0.35585E-01 -0.33249E-01
 -0.29269E-01 -0.23942E-01 -0.19691E-01 -0.16065E-01 -0.13139E-01 -0.10946E-01
 -0.97295E-02 -0.91476E-02 -0.91356E-02 -0.96865E-02 -0.11171E-01 -0.13025E-01
 -0.16049E-01 -0.19435E-01 -0.24174E-01 -0.28727E-01 -0.32178E-01 -0.34447E-01
 -0.35625E-01 -0.34137E-01 -0.30617E-01 -0.24948E-01 -0.18378E-01 -0.11828E-01
 -0.61617E-02 -0.19076E-02  0.28032E-03  0.73662E-03  0.12159E-03 -0.18905E-02
 -0.61360E-02 -0.11851E-01 -0.18175E-01 -0.24960E-01 -0.30574E-01 -0.34279E-01
 -0.35480E-01 -0.34575E-01 -0.32352E-01 -0.28940E-01 -0.24136E-01 -0.19570E-01
 -0.16271E-01 -0.13397E-01 -0.11346E-01 -0.10138E-01 -0.98280E-02 -0.92703E-02
 -0.97521E-02 -0.10128E-01 -0.11389E-01 -0.13552E-01 -0.16275E-01 -0.19637E-01
 -0.19082E-01 -0.22554E-01 -0.25976E-01 -0.29253E-01 -0.30845E-01 -0.30240E-01
 -0.27563E-01 -0.23161E-01 -0.17938E-01 -0.12383E-01 -0.75104E-02 -0.46932E-02
 -0.37974E-02 -0.39338E-02 -0.46731E-02 -0.74392E-02 -0.12353E-01 -0.17856E-01
 -0.23039E-01 -0.27433E-01 -0.30085E-01 -0.30768E-01 -0.29335E-01 -0.26011E-01
 -0.22614E-01 -0.18989E-01 -0.15601E-01 -0.12506E-01 -0.10032E-01 -0.83365E-02
 -0.80779E-02 -0.81896E-02 -0.83666E-02 -0.80972E-02 -0.81520E-02 -0.79280E-02
 -0.84301E-02 -0.98752E-02 -0.12466E-01 -0.15601E-01 -0.12142E-01 -0.12974E-01
 -0.15299E-01 -0.17937E-01 -0.19684E-01 -0.20152E-01 -0.18948E-01 -0.16205E-01
 -0.12615E-01 -0.95289E-02 -0.74957E-02 -0.69297E-02 -0.68250E-02 -0.77571E-02
 -0.95713E-02 -0.12614E-01 -0.16150E-01 -0.19138E-01 -0.20241E-01 -0.19575E-01
 -0.17929E-01 -0.15330E-01 -0.12988E-01 -0.12213E-01 -0.12909E-01 -0.13693E-01
 -0.13507E-01 -0.13623E-01 -0.14934E-01 -0.16684E-01 -0.18491E-01 -0.19093E-01
 -0.19037E-01 -0.18352E-01 -0.16937E-01 -0.14918E-01 -0.13567E-01 -0.13292E-01
 -0.13550E-01 -0.12935E-01 -0.65625E-03 -0.26543E-02 -0.58812E-02 -0.89789E-02
 -0.11973E-01 -0.13541E-01 -0.12795E-01 -0.11350E-01 -0.99636E-02 -0.88299E-02
 -0.79793E-02 -0.72543E-02 -0.77176E-02 -0.87759E-02 -0.98321E-02 -0.11222E-01
 -0.12818E-01 -0.13226E-01 -0.12029E-01 -0.92639E-02 -0.59705E-02 -0.27647E-02
 -0.48182E-03 -0.11337E-03 -0.77976E-03 -0.21462E-02 -0.38984E-02 -0.63393E-02
 -0.93073E-02 -0.11177E-01 -0.12795E-01 -0.13254E-01 -0.12894E-01 -0.11326E-01
 -0.91697E-02 -0.63448E-02 -0.40232E-02 -0.23117E-02 -0.98757E-03 -0.16384E-03
  0.11365E-01  0.78383E-02  0.41753E-02  0.11407E-04 -0.38875E-02 -0.62740E-02
 -0.67615E-02 -0.67369E-02 -0.71747E-02 -0.69325E-02 -0.63206E-02 -0.63596E-02
 -0.69702E-02 -0.74442E-02 -0.68527E-02 -0.68082E-02 -0.61738E-02 -0.38842E-02
  0.80257E-04  0.41153E-02  0.79209E-02  0.11395E-01  0.13405E-01  0.14138E-01
  0.13212E-01  0.10696E-01  0.72736E-02  0.42366E-02  0.23439E-02  0.88995E-03
 -0.79505E-03 -0.74517E-03  0.83484E-03  0.23786E-02  0.41694E-02  0.73762E-02
  0.10682E-01  0.13421E-01  0.14018E-01  0.13584E-01  0.23081E-01  0.18306E-01
  0.13213E-01  0.78537E-02  0.30164E-02 -0.47245E-03 -0.25299E-02 -0.37037E-02
 -0.45279E-02 -0.46803E-02 -0.48633E-02 -0.46430E-02 -0.44076E-02 -0.37114E-02
 -0.25879E-02 -0.65467E-03  0.30887E-02  0.80794E-02  0.13263E-01  0.18102E-01
  0.22991E-01  0.26846E-01  0.29053E-01  0.30050E-01  0.28585E-01  0.25628E-01
  0.23028E-01  0.22085E-01  0.21672E-01  0.20846E-01  0.20251E-01  0.20833E-01
  0.21639E-01  0.22173E-01  0.23080E-01  0.25861E-01  0.28481E-01  0.29621E-01
  0.29058E-01  0.26791E-01  0.33121E-01  0.26523E-01  0.20277E-01  0.13762E-01
  0.77380E-02  0.30676E-02  0.72343E-03 -0.10231E-02 -0.25398E-02 -0.34284E-02
 -0.33460E-02 -0.26145E-02 -0.10711E-02  0.67065E-03  0.31725E-02  0.75847E-02
  0.13875E-01  0.20111E-01  0.26698E-01  0.33087E-01  0.38527E-01  0.42170E-01
  0.44394E-01  0.45185E-01  0.44544E-01  0.43915E-01  0.45134E-01  0.47682E-01
  0.49962E-01  0.51125E-01  0.51144E-01  0.49950E-01  0.47597E-01  0.45011E-01
  0.44100E-01  0.44370E-01  0.44922E-01  0.44410E-01  0.42179E-01  0.38483E-01
  0.39532E-01  0.31947E-01  0.24793E-01  0.17614E-01  0.10947E-01  0.63222E-02
  0.33353E-02  0.98045E-03 -0.10144E-02 -0.22542E-02 -0.11803E-02  0.10902E-02
  0.33260E-02  0.61631E-02  0.10702E-01  0.17592E-01  0.24698E-01  0.32135E-01
  0.39553E-01  0.46449E-01  0.51519E-01  0.55084E-01  0.57376E-01  0.59447E-01
  0.61949E-01  0.66988E-01  0.74255E-01  0.82559E-01  0.89827E-01  0.92758E-01
  0.90011E-01  0.82490E-01  0.74307E-01  0.67112E-01  0.62090E-01  0.59420E-01
  0.57526E-01  0.54912E-01  0.51581E-01  0.46569E-01  0.40872E-01  0.33240E-01
  0.26119E-01  0.18614E-01  0.12209E-01  0.80334E-02  0.49168E-02  0.20223E-02
 -0.13284E-03  0.32944E-04  0.19623E-02  0.50786E-02  0.81418E-02  0.12464E-01
  0.18549E-01  0.26020E-01  0.33243E-01  0.40982E-01  0.48696E-01  0.54829E-01
  0.60070E-01  0.64284E-01  0.68804E-01  0.74427E-01  0.83644E-01  0.96891E-01
  0.11277E+00  0.12807E+00  0.13815E+00  0.13805E+00  0.12802E+00  0.11272E+00
  0.96763E-01  0.83584E-01  0.74420E-01  0.68985E-01  0.64461E-01  0.59899E-01
  0.55128E-01  0.48605E-01  0.37680E-01  0.30554E-01  0.23472E-01  0.17060E-01
  0.11900E-01  0.77477E-02  0.43593E-02  0.16336E-02  0.75693E-03  0.16931E-02
  0.42261E-02  0.77377E-02  0.11788E-01  0.17009E-01  0.23514E-01  0.30388E-01
  0.37881E-01  0.45780E-01  0.52977E-01  0.58646E-01  0.64580E-01  0.71274E-01
  0.79153E-01  0.91620E-01  0.11033E+00  0.13350E+00  0.15753E+00  0.17587E+00
  0.18296E+00  0.17594E+00  0.15751E+00  0.13348E+00  0.11034E+00  0.91664E-01
  0.79250E-01  0.71206E-01  0.64411E-01  0.58659E-01  0.52841E-01  0.45639E-01
  0.31903E-01  0.25361E-01  0.19601E-01  0.14349E-01  0.96353E-02  0.51326E-02
  0.18880E-02  0.43841E-03  0.50249E-03  0.19293E-02  0.52342E-02  0.97103E-02
  0.14299E-01  0.19446E-01  0.25427E-01  0.31785E-01  0.39282E-01  0.46754E-01
  0.53089E-01  0.59032E-01  0.66767E-01  0.76414E-01  0.90398E-01  0.11123E+00
  0.13891E+00  0.16949E+00  0.19648E+00  0.21215E+00  0.21227E+00  0.19625E+00
  0.16929E+00  0.13894E+00  0.11118E+00  0.90447E-01  0.76308E-01  0.66753E-01
  0.59055E-01  0.52950E-01  0.46757E-01  0.39410E-01  0.25573E-01  0.20058E-01
  0.15289E-01  0.10608E-01  0.60873E-02  0.15466E-02 -0.56586E-03 -0.11317E-02
 -0.62377E-03  0.16131E-02  0.59414E-02  0.10753E-01  0.15327E-01  0.20168E-01
  0.25531E-01  0.31965E-01  0.38451E-01  0.44648E-01  0.50480E-01  0.57589E-01
  0.67367E-01  0.81369E-01  0.10149E+00  0.12842E+00  0.16108E+00  0.19356E+00
  0.21818E+00  0.22737E+00  0.21820E+00  0.19334E+00  0.16095E+00  0.12853E+00
  0.10123E+00  0.81477E-01  0.67276E-01  0.57712E-01  0.50343E-01  0.44522E-01
  0.38573E-01  0.32045E-01  0.19360E-01  0.14561E-01  0.10377E-01  0.63576E-02
  0.17975E-02 -0.12122E-02 -0.22641E-02 -0.21819E-02 -0.10380E-02  0.18448E-02
  0.62493E-02  0.10365E-01  0.14660E-01  0.19349E-01  0.24602E-01  0.29495E-01
  0.34203E-01  0.39361E-01  0.46046E-01  0.54887E-01  0.67307E-01  0.85063E-01
  0.10832E+00  0.13718E+00  0.16938E+00  0.19907E+00  0.21692E+00  0.21668E+00
  0.19884E+00  0.16919E+00  0.13710E+00  0.10810E+00  0.84974E-01  0.67335E-01
  0.55016E-01  0.45982E-01  0.39324E-01  0.34246E-01  0.29404E-01  0.24775E-01
  0.12546E-01  0.84226E-02  0.52453E-02  0.14478E-02 -0.17130E-02 -0.36982E-02
 -0.39961E-02 -0.36116E-02 -0.17357E-02  0.14382E-02  0.52322E-02  0.84857E-02
  0.12713E-01  0.17310E-01  0.20939E-01  0.24108E-01  0.27722E-01  0.33344E-01
  0.40430E-01  0.50446E-01  0.64083E-01  0.82390E-01  0.10581E+00  0.13309E+00
  0.16115E+00  0.18267E+00  0.19062E+00  0.18258E+00  0.16107E+00  0.13309E+00
  0.10586E+00  0.82535E-01  0.63777E-01  0.50371E-01  0.40598E-01  0.33312E-01
  0.27961E-01  0.24142E-01  0.21119E-01  0.17349E-01  0.66249E-02  0.31049E-02
  0.30030E-03 -0.28073E-02 -0.53056E-02 -0.68572E-02 -0.66904E-02 -0.54123E-02
 -0.28226E-02  0.30989E-03  0.31464E-02  0.65651E-02  0.10351E-01  0.13198E-01
  0.15499E-01  0.17656E-01  0.21294E-01  0.26699E-01  0.32807E-01  0.41592E-01
  0.54199E-01  0.71607E-01  0.92388E-01  0.11504E+00  0.13483E+00  0.14615E+00
  0.14585E+00  0.13492E+00  0.11503E+00  0.92271E-01  0.71442E-01  0.54236E-01
  0.41419E-01  0.32913E-01  0.26532E-01  0.21464E-01  0.17834E-01  0.15473E-01
  0.13220E-01  0.10273E-01  0.16909E-02 -0.13861E-02 -0.40960E-02 -0.66453E-02
 -0.91610E-02 -0.96321E-02 -0.91358E-02 -0.67677E-02 -0.39390E-02 -0.14187E-02
  0.16900E-02  0.45154E-02  0.67328E-02  0.83130E-02  0.98963E-02  0.11506E-01
  0.14052E-01  0.17059E-01  0.20991E-01  0.27467E-01  0.37996E-01  0.51646E-01
  0.67460E-01  0.82579E-01  0.93071E-01  0.96899E-01  0.93174E-01  0.82629E-01
  0.67413E-01  0.51534E-01  0.37837E-01  0.27540E-01  0.20911E-01  0.16917E-01
  0.14083E-01  0.11822E-01  0.10030E-01  0.82407E-02  0.66537E-02  0.45608E-02
 -0.29051E-02 -0.53918E-02 -0.73064E-02 -0.97840E-02 -0.11552E-01 -0.11628E-01
 -0.95269E-02 -0.73978E-02 -0.53333E-02 -0.29188E-02 -0.33469E-04  0.13186E-02
  0.18413E-02  0.28803E-02  0.37541E-02  0.37521E-02  0.36967E-02  0.41310E-02
  0.56551E-02  0.93252E-02  0.15155E-01  0.22947E-01  0.31855E-01  0.40027E-01
  0.44234E-01  0.44245E-01  0.39898E-01  0.32082E-01  0.22812E-01  0.15143E-01
  0.92589E-02  0.55701E-02  0.41402E-02  0.36816E-02  0.37659E-02  0.36848E-02
  0.28498E-02  0.18771E-02  0.13431E-02 -0.14893E-03 -0.66012E-02 -0.79060E-02
 -0.92355E-02 -0.11440E-01 -0.12566E-01 -0.11418E-01 -0.91726E-02 -0.78282E-02
 -0.64891E-02 -0.43501E-02 -0.27124E-02 -0.31789E-02 -0.35105E-02 -0.35804E-02
 -0.44589E-02 -0.64512E-02 -0.88728E-02 -0.11107E-01 -0.12908E-01 -0.13982E-01