       #
       # Generated by the Wannier90 code http://www.wannier.org
       # On 27Oct2014 at 00:15:00 
       #
CRYSTAL
PRIMVEC
  -2.8400941   0.0000000   2.8400941
   0.0000000   2.8400941   2.8400941
  -2.8400941   2.8400941   0.0000000
CONVVEC
  -2.8400941   0.0000000   2.8400941
   0.0000000   2.8400941   2.8400941
  -2.8400941   2.8400941   0.0000000
PRIMCOORD
     2  1
Ga      0.0000000   0.0000000   0.0000000
As     -1.4200470   1.4200470   1.4200470


BEGIN_BLOCK_DATAGRID_3D
3D_field
BEGIN_DATAGRID_3D_UNKNOWN
    40    40    40
    5.964198   -5.964198   -5.964198
  -5.5381835   0.0000000   5.5381835
   0.0000000   5.5381835   5.5381835
  -5.5381835   5.5381835   0.0000000
 -0.89363E-02  0.35331E-02  0.16578E-01  0.29434E-01  0.41596E-01  0.49782E-01
  0.51348E-01  0.47537E-01  0.40104E-01  0.32468E-01  0.25111E-01  0.17287E-01
  0.10261E-01  0.46186E-02 -0.38348E-03 -0.49690E-02 -0.77947E-02 -0.76939E-02
 -0.63588E-02 -0.42251E-02 -0.79478E-03  0.41265E-02  0.11433E-01  0.19696E-01
  0.27573E-01  0.33168E-01  0.35798E-01  0.33904E-01  0.28629E-01  0.22665E-01
  0.16828E-01  0.10458E-01  0.40535E-02 -0.22221E-02 -0.83515E-02 -0.14677E-01
 -0.20152E-01 -0.23863E-01 -0.24277E-01 -0.18896E-01 -0.12134E-01 -0.37702E-03
  0.11328E-01  0.22925E-01  0.33333E-01  0.39462E-01  0.41074E-01  0.37863E-01
  0.32137E-01  0.25746E-01  0.19553E-01  0.12613E-01  0.65454E-02  0.17710E-02
 -0.28299E-02 -0.66890E-02 -0.82275E-02 -0.82596E-02 -0.74210E-02 -0.52121E-02
 -0.15593E-02  0.40951E-02  0.11557E-01  0.19816E-01  0.26994E-01  0.32678E-01
  0.34027E-01  0.30790E-01  0.25824E-01  0.20436E-01  0.14842E-01  0.86194E-02
  0.25012E-02 -0.43102E-02 -0.11563E-01 -0.18826E-01 -0.25165E-01 -0.29256E-01
 -0.28896E-01 -0.22678E-01 -0.16606E-01 -0.57126E-02  0.52410E-02  0.15933E-01
  0.24313E-01  0.29875E-01  0.31489E-01  0.29260E-01  0.24454E-01  0.19621E-01
  0.13971E-01  0.82362E-02  0.30279E-02 -0.11110E-02 -0.48519E-02 -0.73005E-02
 -0.88065E-02 -0.91943E-02 -0.81454E-02 -0.53145E-02 -0.15567E-02  0.39339E-02
  0.11376E-01  0.19548E-01  0.26389E-01  0.30915E-01  0.30502E-01  0.27352E-01
  0.23030E-01  0.18417E-01  0.13383E-01  0.75401E-02  0.10951E-02 -0.67225E-02
 -0.15069E-01 -0.22686E-01 -0.29546E-01 -0.33405E-01 -0.32366E-01 -0.26077E-01
 -0.20810E-01 -0.11108E-01 -0.75044E-03  0.84781E-02  0.16095E-01  0.21039E-01
  0.22865E-01  0.21263E-01  0.18149E-01  0.14211E-01  0.92890E-02  0.43696E-02
  0.40479E-03 -0.34239E-02 -0.62930E-02 -0.84703E-02 -0.99394E-02 -0.99377E-02
 -0.82735E-02 -0.52641E-02 -0.14540E-02  0.41323E-02  0.11689E-01  0.19096E-01
  0.24928E-01  0.27230E-01  0.26333E-01  0.23608E-01  0.20412E-01  0.16190E-01
  0.11359E-01  0.56092E-02 -0.11616E-02 -0.91781E-02 -0.17659E-01 -0.25786E-01
 -0.32176E-01 -0.35399E-01 -0.34648E-01 -0.29134E-01 -0.23636E-01 -0.15108E-01
 -0.61127E-02  0.22062E-02  0.88580E-02  0.13008E-01  0.14684E-01  0.14279E-01
  0.12119E-01  0.90640E-02  0.51045E-02  0.11543E-02 -0.22703E-02 -0.55672E-02
 -0.82841E-02 -0.99377E-02 -0.10394E-01 -0.98480E-02 -0.80464E-02 -0.49556E-02
 -0.84622E-03  0.48011E-02  0.11473E-01  0.17386E-01  0.20913E-01  0.22266E-01
  0.21623E-01  0.19836E-01  0.17319E-01  0.13252E-01  0.91155E-02  0.35944E-02
 -0.29905E-02 -0.10784E-01 -0.19110E-01 -0.27382E-01 -0.33490E-01 -0.36371E-01
 -0.35423E-01 -0.30736E-01 -0.24423E-01 -0.17898E-01 -0.96947E-02 -0.20704E-02
  0.29203E-02  0.62049E-02  0.81047E-02  0.86798E-02  0.71318E-02  0.44086E-02
  0.13379E-02 -0.11543E-02 -0.40215E-02 -0.72494E-02 -0.90792E-02 -0.99350E-02
 -0.98792E-02 -0.93328E-02 -0.73297E-02 -0.42723E-02 -0.38479E-05  0.47942E-02
  0.95879E-02  0.12916E-01  0.15157E-01  0.16016E-01  0.16218E-01  0.15069E-01
  0.13215E-01  0.10778E-01  0.70153E-02  0.17533E-02 -0.43055E-02 -0.11865E-01
 -0.20176E-01 -0.27583E-01 -0.32948E-01 -0.35387E-01 -0.34277E-01 -0.30116E-01
 -0.23422E-01 -0.18006E-01 -0.10646E-01 -0.47279E-02 -0.10923E-02  0.18597E-02
  0.38230E-02  0.41895E-02  0.32364E-02  0.15350E-02 -0.10381E-02 -0.27591E-02
 -0.47968E-02 -0.71645E-02 -0.82291E-02 -0.84979E-02 -0.87544E-02 -0.83513E-02
 -0.62954E-02 -0.36517E-02 -0.72357E-03  0.22578E-02  0.52686E-02  0.71849E-02
  0.84072E-02  0.97852E-02  0.10255E-01  0.99136E-02  0.10224E-01  0.90081E-02
  0.55921E-02  0.87191E-03 -0.44273E-02 -0.11092E-01 -0.18555E-01 -0.24774E-01
 -0.29471E-01 -0.32048E-01 -0.30784E-01 -0.27572E-01 -0.20459E-01 -0.15966E-01
 -0.10581E-01 -0.65641E-02 -0.31169E-02 -0.72046E-03  0.40792E-03  0.10934E-02
  0.14729E-02  0.17546E-03 -0.13353E-02 -0.27309E-02 -0.40102E-02 -0.55496E-02
 -0.65516E-02 -0.73614E-02 -0.81728E-02 -0.78347E-02 -0.63622E-02 -0.51480E-02
 -0.38547E-02 -0.20626E-02  0.73276E-04  0.11863E-02  0.23190E-02  0.38362E-02
  0.47922E-02  0.61106E-02  0.75160E-02  0.71746E-02  0.47416E-02  0.18341E-02
 -0.20119E-02 -0.77084E-02 -0.13603E-01 -0.18547E-01 -0.23297E-01 -0.25641E-01
 -0.25078E-01 -0.23287E-01 -0.16720E-01 -0.13770E-01 -0.10541E-01 -0.73527E-02
 -0.47663E-02 -0.32470E-02 -0.19640E-02 -0.92361E-04  0.98944E-03  0.40852E-03
 -0.76625E-03 -0.11551E-02 -0.20163E-02 -0.35573E-02 -0.48728E-02 -0.66531E-02
 -0.78728E-02 -0.75733E-02 -0.75367E-02 -0.82141E-02 -0.81138E-02 -0.69513E-02
 -0.62121E-02 -0.57679E-02 -0.40612E-02 -0.20954E-02 -0.57329E-03  0.15667E-02
  0.40591E-02  0.52148E-02  0.57304E-02  0.51432E-02  0.22249E-02 -0.23625E-02
 -0.66260E-02 -0.11136E-01 -0.15557E-01 -0.18166E-01 -0.18297E-01 -0.17741E-01
 -0.12264E-01 -0.11415E-01 -0.99308E-02 -0.77881E-02 -0.59685E-02 -0.46255E-02
 -0.25318E-02 -0.12492E-03  0.13862E-02  0.12258E-02  0.13258E-02  0.12987E-02
  0.42177E-03 -0.10939E-02 -0.28908E-02 -0.49551E-02 -0.66728E-02 -0.81863E-02
 -0.10167E-01 -0.11821E-01 -0.12797E-01 -0.12998E-01 -0.13906E-01 -0.13526E-01
 -0.11670E-01 -0.94736E-02 -0.71297E-02 -0.35152E-02  0.64477E-03  0.49631E-02
  0.81967E-02  0.88939E-02  0.70722E-02  0.41935E-02  0.64283E-03 -0.36466E-02
 -0.73976E-02 -0.10271E-01 -0.11826E-01 -0.12261E-01 -0.87931E-02 -0.97323E-02
 -0.94887E-02 -0.80472E-02 -0.66128E-02 -0.47171E-02 -0.19292E-02  0.95890E-03
  0.33476E-02  0.44193E-02  0.50672E-02  0.46409E-02  0.31444E-02  0.16106E-02
 -0.46586E-03 -0.33751E-02 -0.69279E-02 -0.10198E-01 -0.13131E-01 -0.15858E-01
 -0.18301E-01 -0.20924E-01 -0.22426E-01 -0.22165E-01 -0.20574E-01 -0.17263E-01
 -0.12798E-01 -0.67453E-02  0.40169E-03  0.69708E-02  0.11105E-01  0.13516E-01
  0.13146E-01  0.11267E-01  0.84403E-02  0.44079E-02 -0.16466E-03 -0.38187E-02
 -0.61334E-02 -0.75031E-02 -0.71692E-02 -0.88580E-02 -0.91941E-02 -0.81714E-02
 -0.60207E-02 -0.32909E-02  0.31656E-03  0.42801E-02  0.71343E-02  0.91327E-02
  0.93638E-02  0.82097E-02  0.64411E-02  0.45694E-02  0.13101E-02 -0.36960E-02
 -0.84649E-02 -0.12839E-01 -0.17115E-01 -0.21512E-01 -0.25729E-01 -0.29471E-01
 -0.31629E-01 -0.32063E-01 -0.29565E-01 -0.24231E-01 -0.17016E-01 -0.78850E-02
  0.19707E-02  0.96715E-02  0.15942E-01  0.19617E-01  0.19928E-01  0.18330E-01
  0.15564E-01  0.11303E-01  0.57206E-02  0.11162E-02 -0.18455E-02 -0.46491E-02
 -0.68423E-02 -0.88597E-02 -0.94402E-02 -0.78764E-02 -0.46541E-02 -0.95818E-03
  0.36614E-02  0.86365E-02  0.12270E-01  0.13974E-01  0.14238E-01  0.12790E-01
  0.10213E-01  0.62982E-02  0.98603E-03 -0.48806E-02 -0.10757E-01 -0.16553E-01
 -0.22968E-01 -0.29917E-01 -0.35908E-01 -0.39926E-01 -0.42600E-01 -0.42809E-01
 -0.38634E-01 -0.31077E-01 -0.20548E-01 -0.81470E-02  0.42219E-02  0.14043E-01
  0.21817E-01  0.25839E-01  0.25779E-01  0.23963E-01  0.21688E-01  0.16688E-01
  0.10375E-01  0.49555E-02  0.17208E-03 -0.38176E-02 -0.68854E-02 -0.96095E-02
 -0.99947E-02 -0.73348E-02 -0.31518E-02  0.17639E-02  0.80518E-02  0.14176E-01
  0.18018E-01  0.19604E-01  0.19516E-01  0.17543E-01  0.13005E-01  0.74679E-02
  0.10214E-02 -0.58630E-02 -0.13655E-01 -0.22048E-01 -0.31479E-01 -0.40207E-01
 -0.47612E-01 -0.53108E-01 -0.56473E-01 -0.54882E-01 -0.48856E-01 -0.38279E-01
 -0.23741E-01 -0.73994E-02  0.71426E-02  0.18962E-01  0.27470E-01  0.31062E-01
  0.30941E-01  0.29318E-01  0.25851E-01  0.20140E-01  0.13963E-01  0.72142E-02
  0.96820E-03 -0.39319E-02 -0.87212E-02 -0.11385E-01 -0.10533E-01 -0.64249E-02
 -0.11088E-02  0.63148E-02  0.14796E-01  0.21163E-01  0.24565E-01  0.25731E-01
  0.25075E-01  0.21491E-01  0.15173E-01  0.87851E-02  0.14103E-02 -0.79109E-02
 -0.18498E-01 -0.29819E-01 -0.41328E-01 -0.52740E-01 -0.62507E-01 -0.69869E-01
 -0.72826E-01 -0.69655E-01 -0.60360E-01 -0.45852E-01 -0.26508E-01 -0.65547E-02
  0.10712E-01  0.24165E-01  0.33154E-01  0.36497E-01  0.36011E-01  0.33224E-01
  0.28426E-01  0.22222E-01  0.15115E-01  0.71706E-02  0.18204E-03 -0.48099E-02
 -0.12277E-01 -0.13713E-01 -0.10632E-01 -0.48864E-02  0.28526E-02  0.12886E-01
  0.22739E-01  0.29142E-01  0.31812E-01  0.32521E-01  0.30275E-01  0.24992E-01
  0.17290E-01  0.98893E-02  0.17885E-03 -0.12176E-01 -0.25371E-01 -0.38850E-01
 -0.53734E-01 -0.68250E-01 -0.81710E-01 -0.90698E-01 -0.92669E-01 -0.86939E-01
 -0.73596E-01 -0.52876E-01 -0.28710E-01 -0.51400E-02  0.14323E-01  0.29072E-01
  0.37918E-01  0.40850E-01  0.39402E-01  0.34833E-01  0.28851E-01  0.22187E-01
  0.13867E-01  0.49322E-02 -0.19499E-02 -0.75753E-02 -0.16404E-01 -0.16015E-01
 -0.10661E-01 -0.20001E-02  0.90365E-02  0.21120E-01  0.31647E-01  0.37822E-01
  0.40210E-01  0.39594E-01  0.35490E-01  0.28286E-01  0.19948E-01  0.10423E-01
 -0.20462E-02 -0.16999E-01 -0.32682E-01 -0.50380E-01 -0.69916E-01 -0.89444E-01
 -0.10566E+00 -0.11532E+00 -0.11441E+00 -0.10335E+00 -0.83578E-01 -0.57388E-01
 -0.29545E-01 -0.39967E-02  0.17697E-01  0.32708E-01  0.40707E-01  0.42566E-01
  0.40449E-01  0.34805E-01  0.28321E-01  0.20119E-01  0.10358E-01  0.10669E-02
 -0.60035E-02 -0.12396E-01 -0.20686E-01 -0.17851E-01 -0.96416E-02  0.20823E-02
  0.15905E-01  0.29809E-01  0.41063E-01  0.47440E-01  0.48888E-01  0.46423E-01
  0.40516E-01  0.32157E-01  0.23022E-01  0.10985E-01 -0.45203E-02 -0.21901E-01
 -0.41825E-01 -0.65514E-01 -0.91150E-01 -0.11480E+00 -0.13224E+00 -0.13708E+00
 -0.12795E+00 -0.10799E+00 -0.82506E-01 -0.54829E-01 -0.27617E-01 -0.18098E-02
  0.19630E-01  0.33772E-01  0.41073E-01  0.42540E-01  0.39526E-01  0.33258E-01
  0.26096E-01  0.16663E-01  0.57125E-02 -0.38400E-02 -0.11691E-01 -0.17876E-01
 -0.23548E-01 -0.17784E-01 -0.61910E-02  0.84364E-02  0.24405E-01  0.39593E-01
  0.51521E-01  0.56961E-01  0.56681E-01  0.52651E-01  0.45846E-01  0.37064E-01
  0.25957E-01  0.11452E-01 -0.65932E-02 -0.27604E-01 -0.53188E-01 -0.83893E-01
 -0.11511E+00 -0.14020E+00 -0.15065E+00 -0.14317E+00 -0.12139E+00 -0.94997E-01
 -0.69679E-01 -0.47102E-01 -0.24343E-01 -0.76438E-03  0.20096E-01  0.33916E-01
  0.40569E-01  0.40806E-01  0.35912E-01  0.29299E-01  0.21643E-01  0.11343E-01
 -0.12472E-04 -0.10382E-01 -0.18313E-01 -0.23227E-01 -0.24530E-01 -0.15184E-01
 -0.78308E-03  0.15896E-01  0.33399E-01  0.49772E-01  0.61128E-01  0.64509E-01
  0.63179E-01  0.59109E-01  0.51989E-01  0.42806E-01  0.30155E-01  0.13323E-01
 -0.76015E-02 -0.33613E-01 -0.66327E-01 -0.10345E+00 -0.13689E+00 -0.15505E+00
 -0.15132E+00 -0.12920E+00 -0.99921E-01 -0.74126E-01 -0.55570E-01 -0.41018E-01
 -0.23044E-01 -0.69737E-03  0.19749E-01  0.32942E-01  0.37839E-01  0.36565E-01
  0.31033E-01  0.23945E-01  0.15444E-01  0.45176E-02 -0.75185E-02 -0.18016E-01
 -0.25113E-01 -0.27671E-01 -0.23674E-01 -0.10886E-01  0.53052E-02  0.23120E-01
  0.41418E-01  0.57954E-01  0.67474E-01  0.70545E-01  0.69693E-01  0.66123E-01
  0.59501E-01  0.50879E-01  0.37075E-01  0.17708E-01 -0.78286E-02 -0.40460E-01
 -0.80461E-01 -0.12063E+00 -0.14847E+00 -0.15362E+00 -0.13639E+00 -0.10831E+00
 -0.80578E-01 -0.60489E-01 -0.49643E-01 -0.40867E-01 -0.24502E-01 -0.16808E-02
  0.17735E-01  0.29114E-01  0.33050E-01  0.30946E-01  0.25860E-01  0.18323E-01
  0.84779E-02 -0.35355E-02 -0.15632E-01 -0.25588E-01 -0.30750E-01 -0.30092E-01
 -0.20880E-01 -0.57856E-02  0.11373E-01  0.29427E-01  0.48322E-01  0.63713E-01
  0.72179E-01  0.76166E-01  0.76897E-01  0.74846E-01  0.70442E-01  0.62345E-01
  0.47552E-01  0.24326E-01 -0.69927E-02 -0.47218E-01 -0.91937E-01 -0.13040E+00
 -0.14849E+00 -0.14226E+00 -0.12109E+00 -0.96051E-01 -0.73707E-01 -0.60651E-01
 -0.55565E-01 -0.47076E-01 -0.27711E-01 -0.38108E-02  0.14279E-01  0.24102E-01
  0.27425E-01  0.25718E-01  0.19951E-01  0.11325E-01  0.77798E-03 -0.11433E-01
 -0.23329E-01 -0.32072E-01 -0.34241E-01 -0.30814E-01 -0.16742E-01 -0.54470E-03
  0.16543E-01  0.35078E-01  0.53754E-01  0.67417E-01  0.76072E-01  0.81837E-01
  0.85672E-01  0.87321E-01  0.86265E-01  0.78446E-01  0.61121E-01  0.33187E-01
 -0.50358E-02 -0.51484E-01 -0.98690E-01 -0.13279E+00 -0.14303E+00 -0.13352E+00
 -0.11571E+00 -0.95896E-01 -0.80620E-01 -0.74010E-01 -0.69624E-01 -0.54902E-01
 -0.29588E-01 -0.54515E-02  0.10624E-01  0.18916E-01  0.21778E-01  0.19471E-01
  0.13271E-01  0.40623E-02 -0.65426E-02 -0.18625E-01 -0.29583E-01 -0.35360E-01
 -0.35523E-01 -0.29280E-01 -0.12086E-01  0.36303E-02  0.20841E-01  0.39584E-01
  0.56889E-01  0.69260E-01  0.79348E-01  0.89232E-01  0.98358E-01  0.10537E+00
  0.10635E+00  0.97275E-01  0.76532E-01  0.43183E-01 -0.16428E-02 -0.53473E-01
 -0.10117E+00 -0.13182E+00 -0.14052E+00 -0.13350E+00 -0.12104E+00 -0.10840E+00
 -0.99792E-01 -0.94748E-01 -0.82473E-01 -0.57480E-01 -0.28575E-01 -0.64894E-02
  0.72023E-02  0.14232E-01  0.15680E-01  0.13407E-01  0.71113E-02 -0.23428E-02
 -0.13283E-01 -0.24932E-01 -0.32822E-01 -0.36307E-01 -0.34471E-01 -0.26031E-01
 -0.91214E-02  0.62385E-02  0.23272E-01  0.41537E-01  0.57345E-01  0.70257E-01
  0.84334E-01  0.10039E+00  0.11675E+00  0.12832E+00  0.12999E+00  0.11827E+00
  0.92602E-01  0.51952E-01  0.63895E-03 -0.54293E-01 -0.10156E+00 -0.13193E+00
 -0.14319E+00 -0.14236E+00 -0.13630E+00 -0.12912E+00 -0.12147E+00 -0.10815E+00
 -0.83333E-01 -0.53128E-01 -0.26297E-01 -0.76005E-02  0.40038E-02  0.99019E-02
  0.11100E-01  0.90457E-02  0.21532E-02 -0.77495E-02 -0.18524E-01 -0.27592E-01
 -0.33163E-01 -0.35397E-01 -0.32322E-01 -0.22516E-01 -0.66002E-02  0.76067E-02
  0.23980E-01  0.40629E-01  0.55888E-01  0.72733E-01  0.92742E-01  0.11583E+00
  0.13796E+00  0.15242E+00  0.15310E+00  0.13728E+00  0.10441E+00  0.56628E-01
  0.11049E-02 -0.54400E-01 -0.10127E+00 -0.13271E+00 -0.14860E+00 -0.15375E+00
 -0.15119E+00 -0.14321E+00 -0.12799E+00 -0.10348E+00 -0.73646E-01 -0.45549E-01
 -0.23815E-01 -0.78141E-02  0.18476E-02  0.69240E-02  0.80284E-02  0.51246E-02
 -0.18929E-02 -0.11142E-01 -0.19948E-01 -0.27423E-01 -0.32044E-01 -0.33438E-01
 -0.29062E-01 -0.18932E-01 -0.47409E-02  0.83435E-02  0.22792E-01  0.38120E-01
  0.55863E-01  0.77395E-01  0.10328E+00  0.13293E+00  0.15891E+00  0.17334E+00
  0.17029E+00  0.14832E+00  0.10822E+00  0.56613E-01  0.57484E-03 -0.53379E-01
 -0.98736E-01 -0.13038E+00 -0.14852E+00 -0.15499E+00 -0.15082E+00 -0.13717E+00
 -0.11450E+00 -0.87047E-01 -0.60478E-01 -0.38315E-01 -0.20569E-01 -0.77547E-02
  0.39138E-03  0.51280E-02  0.57908E-02  0.20698E-02 -0.44833E-02 -0.11675E-01
 -0.19327E-01 -0.25807E-01 -0.29689E-01 -0.29310E-01 -0.24269E-01 -0.15449E-01
 -0.27152E-02  0.84307E-02  0.20811E-01  0.36672E-01  0.57341E-01  0.83206E-01
  0.11445E+00  0.14831E+00  0.17498E+00  0.18599E+00  0.17698E+00  0.14825E+00
  0.10436E+00  0.51844E-01 -0.16837E-02 -0.51472E-01 -0.91920E-01 -0.12055E+00
 -0.13661E+00 -0.14021E+00 -0.13200E+00 -0.11514E+00 -0.92733E-01 -0.69547E-01
 -0.48842E-01 -0.31094E-01 -0.16917E-01 -0.66905E-02  0.89805E-03  0.53561E-02
  0.48301E-02  0.97735E-03 -0.43893E-02 -0.10848E-01 -0.17609E-01 -0.22781E-01
 -0.25089E-01 -0.23805E-01 -0.19653E-01 -0.12560E-01 -0.18078E-02  0.71559E-02
  0.18874E-01  0.36219E-01  0.59336E-01  0.88440E-01  0.12364E+00  0.15809E+00
  0.18135E+00  0.18583E+00  0.17015E+00  0.13722E+00  0.92661E-01  0.43233E-01
 -0.50653E-02 -0.47020E-01 -0.80268E-01 -0.10350E+00 -0.11513E+00 -0.11501E+00
 -0.10564E+00 -0.90694E-01 -0.72878E-01 -0.55054E-01 -0.38743E-01 -0.24325E-01
 -0.12905E-01 -0.35857E-02  0.40702E-02  0.72903E-02  0.55425E-02  0.17930E-02
 -0.28812E-02 -0.90494E-02 -0.15017E-01 -0.18935E-01 -0.20202E-01 -0.19633E-01
 -0.16316E-01 -0.10062E-01 -0.22301E-02  0.55473E-02  0.17797E-01  0.36183E-01
  0.60632E-01  0.91851E-01  0.12756E+00  0.15828E+00  0.17501E+00  0.17353E+00
  0.15309E+00  0.11826E+00  0.76572E-01  0.33234E-01 -0.70375E-02 -0.40437E-01
 -0.66451E-01 -0.83728E-01 -0.91112E-01 -0.89293E-01 -0.81648E-01 -0.70066E-01
 -0.56393E-01 -0.42682E-01 -0.29499E-01 -0.17405E-01 -0.71413E-02  0.15695E-02
  0.77361E-02  0.91862E-02  0.68768E-02  0.36303E-02 -0.11622E-02 -0.67443E-02
 -0.11778E-01 -0.14716E-01 -0.16338E-01 -0.16255E-01 -0.13532E-01 -0.84972E-02
 -0.33389E-02  0.44757E-02  0.17562E-01  0.36197E-01  0.61208E-01  0.92046E-01
  0.12370E+00  0.14830E+00  0.15885E+00  0.15243E+00  0.12990E+00  0.97149E-01
  0.61125E-01  0.24405E-01 -0.77405E-02 -0.33699E-01 -0.53006E-01 -0.65436E-01
 -0.69894E-01 -0.68293E-01 -0.62398E-01 -0.53077E-01 -0.42733E-01 -0.32139E-01
 -0.20681E-01 -0.94554E-02 -0.57845E-03  0.60697E-02  0.10095E-01  0.10782E-01
  0.90089E-02  0.56999E-02  0.11550E-02 -0.43303E-02 -0.84528E-02 -0.11103E-01
 -0.12774E-01 -0.13010E-01 -0.11431E-01 -0.80973E-02 -0.41066E-02  0.41062E-02
  0.17576E-01  0.36125E-01  0.60744E-01  0.88527E-01  0.11453E+00  0.13284E+00
  0.13797E+00  0.12815E+00  0.10646E+00  0.78389E-01  0.47557E-01  0.17633E-01
 -0.76753E-02 -0.27434E-01 -0.41785E-01 -0.50248E-01 -0.53504E-01 -0.52589E-01
 -0.47677E-01 -0.39970E-01 -0.31807E-01 -0.22316E-01 -0.11584E-01 -0.19804E-02
  0.46803E-02  0.99804E-02  0.13113E-01  0.13382E-01  0.11280E-01  0.74827E-02
  0.24740E-02 -0.22282E-02 -0.55394E-02 -0.83161E-02 -0.10451E-01 -0.11063E-01
 -0.10164E-01 -0.79515E-02 -0.42254E-02  0.40284E-02  0.17403E-01  0.36236E-01
  0.59319E-01  0.83207E-01  0.10343E+00  0.11598E+00  0.11659E+00  0.10539E+00
  0.85938E-01  0.62449E-01  0.37057E-01  0.13302E-01 -0.64511E-02 -0.21939E-01
 -0.32661E-01 -0.38919E-01 -0.41384E-01 -0.40408E-01 -0.35676E-01 -0.29386E-01
 -0.22570E-01 -0.13485E-01 -0.39972E-02  0.37781E-02  0.10169E-01  0.15323E-01
  0.17244E-01  0.16206E-01  0.13304E-01  0.87775E-02  0.41396E-02 -0.16239E-03
 -0.35154E-02 -0.62544E-02 -0.87595E-02 -0.97735E-02 -0.98423E-02 -0.83191E-02
 -0.42622E-02  0.44597E-02  0.17865E-01  0.36174E-01  0.57352E-01  0.77403E-01
  0.92829E-01  0.10050E+00  0.98459E-01  0.87399E-01  0.70452E-01  0.50646E-01
  0.30116E-01  0.11520E-01 -0.44788E-02 -0.16976E-01 -0.25350E-01 -0.29736E-01
 -0.31393E-01 -0.30309E-01 -0.25907E-01 -0.20664E-01 -0.13745E-01 -0.57844E-02
  0.21248E-02  0.97844E-02  0.16381E-01  0.19807E-01  0.20311E-01  0.18289E-01
  0.14738E-01  0.10186E-01  0.59498E-02  0.17824E-02 -0.18079E-02 -0.50306E-02
 -0.75748E-02 -0.91308E-02 -0.92415E-02 -0.81619E-02 -0.34154E-02  0.55311E-02
  0.18974E-01  0.36760E-01  0.55893E-01  0.72474E-01  0.84247E-01  0.89138E-01
  0.85538E-01  0.75004E-01  0.59785E-01  0.42638E-01  0.25944E-01  0.11070E-01
 -0.19969E-02 -0.11963E-01 -0.18745E-01 -0.21987E-01 -0.22980E-01 -0.21682E-01
 -0.18310E-01 -0.13100E-01 -0.62582E-02  0.12511E-02  0.85520E-02  0.16020E-01
  0.21626E-01  0.23574E-01  0.23060E-01  0.20597E-01  0.16754E-01  0.12305E-01
  0.72605E-02  0.29758E-02 -0.73143E-03 -0.41672E-02 -0.71905E-02 -0.91602E-02
 -0.98656E-02 -0.79833E-02 -0.21242E-02  0.71578E-02  0.20768E-01  0.38243E-01
  0.55999E-01  0.70193E-01  0.79204E-01  0.81746E-01  0.76998E-01  0.66111E-01
  0.52120E-01  0.37115E-01  0.22772E-01  0.10444E-01  0.40916E-03 -0.78366E-02
 -0.13550E-01 -0.16387E-01 -0.17108E-01 -0.15741E-01 -0.12722E-01 -0.69462E-02
 -0.11514E-03  0.72700E-02  0.14883E-01  0.22090E-01  0.26258E-01  0.26957E-01
  0.25691E-01  0.22869E-01  0.18310E-01  0.13302E-01  0.80708E-02  0.36138E-02
 -0.28562E-03 -0.43869E-02 -0.75531E-02 -0.97652E-02 -0.10193E-01 -0.79102E-02
 -0.19353E-02  0.84664E-02  0.23046E-01  0.40619E-01  0.57259E-01  0.69272E-01
  0.75856E-01  0.76224E-01  0.69742E-01  0.58832E-01  0.45867E-01  0.32164E-01
  0.19948E-01  0.97430E-02  0.13790E-02 -0.57325E-02 -0.10589E-01 -0.12776E-01
 -0.12937E-01 -0.11718E-01 -0.79664E-02 -0.18541E-02  0.52969E-02  0.12998E-01
  0.20993E-01  0.27408E-01  0.30407E-01  0.30969E-01  0.28507E-01  0.24103E-01
  0.18863E-01  0.13265E-01  0.82012E-02  0.32804E-02 -0.88610E-03 -0.51719E-02
 -0.86688E-02 -0.11213E-01 -0.11463E-01 -0.83898E-02 -0.26870E-02  0.83467E-02
  0.23875E-01  0.41710E-01  0.56787E-01  0.67377E-01  0.72078E-01  0.70583E-01
  0.63158E-01  0.52920E-01  0.40737E-01  0.28169E-01  0.17405E-01  0.86337E-02
  0.10902E-02 -0.48594E-02 -0.83108E-02 -0.10128E-01 -0.10022E-01 -0.81897E-02
 -0.36584E-02  0.22284E-02  0.94713E-02  0.17333E-01  0.25015E-01  0.30751E-01
  0.34009E-01  0.33992E-01  0.30171E-01  0.24475E-01  0.18954E-01  0.13488E-01
  0.81034E-02  0.26677E-02 -0.18308E-02 -0.62934E-02 -0.10404E-01 -0.12975E-01
 -0.13419E-01 -0.98694E-02 -0.47160E-02  0.73076E-02  0.23304E-01  0.39665E-01
  0.53781E-01  0.63530E-01  0.67531E-01  0.64472E-01  0.56521E-01  0.46583E-01
  0.35555E-01  0.24834E-01  0.15305E-01  0.72187E-02  0.10056E-02 -0.36940E-02
 -0.66270E-02 -0.81852E-02 -0.75437E-02 -0.50955E-02 -0.92559E-03  0.48020E-02
  0.11417E-01  0.19357E-01  0.26497E-01  0.32630E-01  0.35842E-01  0.35081E-01
  0.30508E-01  0.24121E-01  0.19001E-01  0.13126E-01  0.75890E-02  0.16995E-02
 -0.33691E-02 -0.84068E-02 -0.12848E-01 -0.16247E-01 -0.16524E-01 -0.12564E-01
 -0.67204E-02  0.61360E-02  0.20860E-01  0.35226E-01  0.48396E-01  0.57906E-01
  0.61114E-01  0.57009E-01  0.48890E-01  0.39641E-01  0.30331E-01  0.21343E-01
  0.13010E-01  0.61684E-02  0.97382E-03 -0.35068E-02 -0.66739E-02 -0.75795E-02
 -0.62370E-02 -0.37253E-02  0.53139E-04  0.47387E-02  0.11519E-01  0.19618E-01
  0.27011E-01  0.33380E-01  0.36538E-01  0.35034E-01  0.30054E-01  0.23939E-01
  0.18199E-01  0.12185E-01  0.58391E-02 -0.30690E-04 -0.55144E-02 -0.11115E-01
 -0.16208E-01 -0.19559E-01 -0.19703E-01 -0.15570E-01 -0.12016E-01 -0.37806E-03
  0.11406E-01  0.22792E-01  0.33386E-01  0.39530E-01  0.41146E-01  0.37792E-01
  0.32028E-01  0.25750E-01  0.19601E-01  0.12673E-01  0.64766E-02  0.17931E-02
 -0.27368E-02 -0.64770E-02 -0.82658E-02 -0.83265E-02 -0.74370E-02 -0.51027E-02
 -0.15303E-02  0.40528E-02  0.11621E-01  0.19740E-01  0.27007E-01  0.32475E-01
  0.34065E-01  0.30885E-01  0.25731E-01  0.20551E-01  0.14867E-01  0.87669E-02
  0.24268E-02 -0.42946E-02 -0.11802E-01 -0.18844E-01 -0.25389E-01 -0.29286E-01
 -0.28940E-01 -0.22632E-01 -0.12850E-01 -0.26288E-02  0.79106E-02  0.18288E-01
  0.26759E-01  0.31868E-01  0.33141E-01  0.30534E-01  0.25458E-01  0.20107E-01
  0.14555E-01  0.84517E-02  0.30164E-02 -0.13726E-02 -0.53644E-02 -0.77951E-02
 -0.90408E-02 -0.97001E-02 -0.86327E-02 -0.63316E-02 -0.25547E-02  0.33613E-02
  0.11493E-01  0.19772E-01  0.27301E-01  0.32056E-01  0.31840E-01  0.27797E-01
  0.23209E-01  0.18907E-01  0.13264E-01  0.68807E-02  0.51383E-03 -0.68737E-02
 -0.15241E-01 -0.23159E-01 -0.29498E-01 -0.32120E-01 -0.30031E-01 -0.22811E-01
 -0.15431E-01 -0.58434E-02  0.40928E-02  0.13362E-01  0.20098E-01  0.24628E-01
  0.26007E-01  0.23559E-01  0.19410E-01  0.15337E-01  0.10345E-01  0.52329E-02
  0.25520E-03 -0.41708E-02 -0.72636E-02 -0.93186E-02 -0.10608E-01 -0.10900E-01
 -0.93576E-02 -0.67966E-02 -0.27609E-02  0.39639E-02  0.12097E-01  0.19995E-01
  0.26868E-01  0.29388E-01  0.27540E-01  0.24377E-01  0.21665E-01  0.17335E-01
  0.11760E-01  0.58122E-02 -0.10542E-02 -0.94692E-02 -0.18755E-01 -0.26439E-01
 -0.31934E-01 -0.33562E-01 -0.30735E-01 -0.23940E-01 -0.17828E-01 -0.92273E-02
 -0.31663E-04  0.78700E-02  0.13798E-01  0.17530E-01  0.18611E-01  0.17230E-01
  0.14269E-01  0.10714E-01  0.62112E-02  0.16013E-02 -0.27913E-02 -0.66109E-02
 -0.96275E-02 -0.11390E-01 -0.12089E-01 -0.11518E-01 -0.93463E-02 -0.63310E-02
 -0.16997E-02  0.52145E-02  0.12598E-01  0.19586E-01  0.24397E-01  0.25407E-01
  0.24272E-01  0.22744E-01  0.20489E-01  0.15824E-01  0.10729E-01  0.48043E-02
 -0.24870E-02 -0.11247E-01 -0.20006E-01 -0.27378E-01 -0.32705E-01 -0.34131E-01
 -0.31294E-01 -0.25338E-01 -0.19675E-01 -0.11949E-01 -0.37808E-02  0.30107E-02
  0.76765E-02  0.11008E-01  0.12436E-01  0.11940E-01  0.95665E-02  0.59296E-02
  0.17437E-02 -0.17361E-02 -0.54395E-02 -0.90655E-02 -0.11536E-01 -0.12660E-01
 -0.11831E-01 -0.10763E-01 -0.85837E-02 -0.50891E-02 -0.20426E-03  0.60778E-02
  0.12314E-01  0.17786E-01  0.20958E-01  0.21579E-01  0.21298E-01  0.20076E-01
  0.17539E-01  0.14104E-01  0.93067E-02  0.31701E-02 -0.39777E-02 -0.11970E-01
 -0.20518E-01 -0.27641E-01 -0.32438E-01 -0.33514E-01 -0.31115E-01 -0.26041E-01
 -0.20318E-01 -0.13513E-01 -0.63123E-02 -0.49200E-03  0.34053E-02  0.61495E-02
  0.80231E-02  0.78393E-02  0.50836E-02  0.15605E-02 -0.10942E-02 -0.35189E-02
 -0.68412E-02 -0.98144E-02 -0.11633E-01 -0.11468E-01 -0.10514E-01 -0.94698E-02
 -0.75283E-02 -0.40686E-02  0.49944E-03  0.57851E-02  0.10544E-01  0.13713E-01
  0.15500E-01  0.16278E-01  0.16408E-01  0.15688E-01  0.14512E-01  0.11801E-01
  0.71180E-02  0.11480E-02 -0.53801E-02 -0.12689E-01 -0.20329E-01 -0.26435E-01
 -0.30684E-01 -0.32011E-01 -0.29774E-01 -0.25368E-01 -0.18846E-01 -0.12888E-01
 -0.67374E-02 -0.25054E-02  0.47548E-03  0.35373E-02  0.49057E-02  0.44127E-02
  0.17337E-02 -0.60456E-03 -0.22299E-02 -0.41412E-02 -0.68163E-02 -0.91510E-02
 -0.96029E-02 -0.92960E-02 -0.90351E-02 -0.83831E-02 -0.63545E-02 -0.33598E-02
 -0.32563E-03  0.34963E-02  0.63198E-02  0.74787E-02  0.87654E-02  0.10116E-01
  0.10650E-01  0.11243E-01  0.11308E-01  0.92915E-02  0.46686E-02 -0.34592E-03
 -0.56959E-02 -0.12136E-01 -0.18086E-01 -0.23138E-01 -0.27058E-01 -0.28243E-01
 -0.26319E-01 -0.23152E-01 -0.16133E-01 -0.11357E-01 -0.68850E-02 -0.37246E-02
 -0.97046E-03  0.96933E-03  0.19895E-02  0.15978E-02  0.71667E-03 -0.94956E-03
 -0.20901E-02 -0.36385E-02 -0.54977E-02 -0.67793E-02 -0.73721E-02 -0.79471E-02
 -0.81957E-02 -0.75671E-02 -0.59786E-02 -0.45677E-02 -0.26602E-02 -0.76737E-03
  0.15853E-03  0.80765E-03  0.26572E-02  0.44851E-02  0.54107E-02  0.66578E-02
  0.73489E-02  0.61081E-02  0.35147E-02  0.48985E-03 -0.42658E-02 -0.97417E-02
 -0.13857E-01 -0.17870E-01 -0.21329E-01 -0.22331E-01 -0.21091E-01 -0.19240E-01
 -0.12520E-01 -0.98765E-02 -0.73696E-02 -0.45118E-02 -0.23873E-02 -0.94032E-03
  0.30223E-04  0.93039E-03  0.45753E-03 -0.53815E-03 -0.11649E-02 -0.18485E-02
 -0.29098E-02 -0.39157E-02 -0.52995E-02 -0.64742E-02 -0.69328E-02 -0.65537E-02
 -0.66762E-02 -0.68696E-02 -0.68408E-02 -0.62835E-02 -0.61539E-02 -0.55418E-02
 -0.37406E-02 -0.21234E-02 -0.84365E-03  0.10226E-02  0.29499E-02  0.41805E-02
  0.44370E-02  0.25181E-02 -0.13451E-02 -0.52187E-02 -0.82944E-02 -0.11727E-01
 -0.14520E-01 -0.15277E-01 -0.14971E-01 -0.14504E-01 -0.93940E-02 -0.87338E-02
 -0.69326E-02 -0.47536E-02 -0.31620E-02 -0.22841E-02 -0.11062E-03  0.17108E-02
  0.20107E-02  0.16063E-02  0.17041E-02  0.14991E-02  0.21351E-03 -0.14750E-02
 -0.26857E-02 -0.44258E-02 -0.54899E-02 -0.66434E-02 -0.85709E-02 -0.10246E-01
 -0.11017E-01 -0.11964E-01 -0.12841E-01 -0.12629E-01 -0.11540E-01 -0.10432E-01
 -0.77046E-02 -0.40040E-02  0.27695E-03  0.34433E-02  0.55756E-02  0.49764E-02
  0.30122E-02  0.69292E-03 -0.19016E-02 -0.51654E-02 -0.77794E-02 -0.92852E-02
 -0.98880E-02 -0.98178E-02 -0.73951E-02 -0.78041E-02 -0.64884E-02 -0.47074E-02
 -0.31466E-02 -0.97164E-03  0.19267E-02  0.44994E-02  0.50580E-02  0.59350E-02
  0.62196E-02  0.51458E-02  0.31722E-02  0.17743E-02  0.59314E-04 -0.29475E-02
 -0.58538E-02 -0.86097E-02 -0.11115E-01 -0.13592E-01 -0.15884E-01 -0.18173E-01
 -0.20514E-01 -0.21588E-01 -0.20749E-01 -0.18016E-01 -0.13182E-01 -0.72517E-02
 -0.14017E-02  0.36869E-02  0.72878E-02  0.89618E-02  0.88436E-02  0.71798E-02
  0.45455E-02  0.10195E-02 -0.23582E-02 -0.44564E-02 -0.54131E-02 -0.63706E-02
 -0.68065E-02 -0.72195E-02 -0.63709E-02 -0.47332E-02 -0.24450E-02  0.10535E-02
  0.48260E-02  0.78197E-02  0.97829E-02  0.10657E-01  0.10411E-01  0.83686E-02
  0.65630E-02  0.47461E-02  0.14781E-02 -0.31683E-02 -0.73891E-02 -0.10946E-01
 -0.14730E-01 -0.18648E-01 -0.22684E-01 -0.26451E-01 -0.29559E-01 -0.31119E-01
 -0.29238E-01 -0.24372E-01 -0.17314E-01 -0.94936E-02 -0.18637E-02  0.47978E-02
  0.10695E-01  0.13656E-01  0.13860E-01  0.12338E-01  0.95593E-02  0.59440E-02
  0.18691E-02 -0.82854E-03 -0.25752E-02 -0.47930E-02 -0.68503E-02 -0.79594E-02
 -0.69328E-02 -0.45158E-02 -0.10749E-02  0.34031E-02  0.81006E-02  0.11682E-01
  0.14261E-01  0.15363E-01  0.14386E-01  0.12640E-01  0.10379E-01  0.66443E-02
  0.18647E-02 -0.35397E-02 -0.85443E-02 -0.13873E-01 -0.20078E-01 -0.26481E-01
 -0.31764E-01 -0.36772E-01 -0.40087E-01 -0.40467E-01 -0.37064E-01 -0.30394E-01
 -0.20831E-01 -0.10471E-01 -0.32849E-03  0.78077E-02  0.14180E-01  0.16830E-01
  0.17262E-01  0.15954E-01  0.13612E-01  0.92668E-02  0.51299E-02  0.15982E-02
 -0.13874E-02 -0.42230E-02 -0.73520E-02 -0.88214E-02 -0.71636E-02 -0.37590E-02
  0.67493E-03  0.63136E-02  0.12478E-01  0.17170E-01  0.19665E-01  0.20160E-01
  0.19729E-01  0.17276E-01  0.13169E-01  0.83238E-02  0.25687E-02 -0.35663E-02
 -0.10569E-01 -0.18528E-01 -0.27406E-01 -0.35887E-01 -0.42940E-01 -0.48910E-01
 -0.51782E-01 -0.50461E-01 -0.45102E-01 -0.35670E-01 -0.23002E-01 -0.96505E-02
  0.18074E-02  0.11124E-01  0.17156E-01  0.19659E-01  0.20288E-01  0.19125E-01
  0.15995E-01  0.11832E-01  0.68634E-02  0.23137E-02 -0.15953E-02 -0.48013E-02
 -0.94638E-02 -0.10053E-01 -0.70620E-02 -0.26312E-02  0.34233E-02  0.10940E-01
  0.18563E-01  0.23523E-01  0.25416E-01  0.25713E-01  0.24401E-01  0.21068E-01
  0.15460E-01  0.97820E-02  0.38047E-02 -0.44697E-02 -0.13843E-01 -0.24088E-01
 -0.35300E-01 -0.46363E-01 -0.56259E-01 -0.63026E-01 -0.65130E-01 -0.62101E-01
 -0.53870E-01 -0.40743E-01 -0.24365E-01 -0.87747E-02  0.41583E-02  0.14367E-01
  0.20710E-01  0.23301E-01  0.23528E-01  0.21302E-01  0.17446E-01  0.12601E-01
  0.67297E-02  0.17495E-02 -0.26081E-02 -0.63337E-02 -0.12441E-01 -0.11152E-01
 -0.66395E-02 -0.76342E-03  0.77911E-02  0.17369E-01  0.26093E-01  0.30460E-01
  0.31961E-01  0.31844E-01  0.29569E-01  0.23896E-01  0.18005E-01  0.11757E-01
  0.37617E-02 -0.66639E-02 -0.17885E-01 -0.31053E-01 -0.45142E-01 -0.59265E-01