       #
       # Generated by the Wannier90 code http://www.wannier.org
       # On 27Oct2014 at 00:15:00 
       #
CRYSTAL
PRIMVEC
  -2.8400941   0.0000000   2.8400941
   0.0000000   2.8400941   2.8400941
  -2.8400941   2.8400941   0.0000000
CONVVEC
  -2.8400941   0.0000000   2.8400941
   0.0000000   2.8400941   2.8400941
  -2.8400941   2.8400941   0.0000000
PRIMCOORD
     2  1
Ga      0.0000000   0.0000000   0.0000000
As     -1.4200470   1.4200470   1.4200470


BEGIN_BLOCK_DATAGRID_3D
3D_field
BEGIN_DATAGRID_3D_UNKNOWN
    40    40    40
    5.964198   -5.964198   -5.964198
  -5.5381835   0.0000000   5.5381835
   0.0000000   5.5381835   5.5381835
  -5.5381835   5.5381835   0.0000000
 -0.89770E-02 -0.12046E-01 -0.16570E-01 -0.20839E-01 -0.23721E-01 -0.24432E-01
 -0.23482E-01 -0.20391E-01 -0.16375E-01 -0.12134E-01 -0.87443E-02 -0.71194E-02
 -0.68442E-02 -0.71354E-02 -0.87482E-02 -0.12199E-01 -0.16578E-01 -0.20471E-01
 -0.23449E-01 -0.24443E-01 -0.23507E-01 -0.20999E-01 -0.16612E-01 -0.12060E-01
 -0.90988E-02 -0.66035E-02 -0.47955E-02 -0.28303E-02 -0.19978E-02 -0.21054E-02
 -0.33100E-02 -0.41329E-02 -0.42847E-02 -0.39708E-02 -0.33176E-02 -0.22041E-02
 -0.18638E-02 -0.25898E-02 -0.47165E-02 -0.67016E-02 -0.12100E-01 -0.12821E-01
 -0.15254E-01 -0.17880E-01 -0.19610E-01 -0.20301E-01 -0.18971E-01 -0.16161E-01
 -0.12741E-01 -0.95860E-02 -0.75129E-02 -0.66316E-02 -0.68908E-02 -0.76245E-02
 -0.95845E-02 -0.12481E-01 -0.16054E-01 -0.18932E-01 -0.20177E-01 -0.19739E-01
 -0.17869E-01 -0.15093E-01 -0.12883E-01 -0.12126E-01 -0.12838E-01 -0.13595E-01
 -0.13281E-01 -0.13540E-01 -0.14805E-01 -0.16822E-01 -0.18473E-01 -0.19139E-01
 -0.19099E-01 -0.18423E-01 -0.16788E-01 -0.14923E-01 -0.13766E-01 -0.13367E-01
 -0.13606E-01 -0.12919E-01 -0.16655E-01 -0.15343E-01 -0.15453E-01 -0.16048E-01
 -0.16739E-01 -0.16480E-01 -0.14116E-01 -0.11285E-01 -0.87967E-02 -0.72456E-02
 -0.61382E-02 -0.58487E-02 -0.60253E-02 -0.73960E-02 -0.89537E-02 -0.11135E-01
 -0.14225E-01 -0.16333E-01 -0.17022E-01 -0.16055E-01 -0.15515E-01 -0.15201E-01
 -0.16632E-01 -0.19331E-01 -0.22389E-01 -0.24737E-01 -0.26795E-01 -0.29502E-01
 -0.33102E-01 -0.36225E-01 -0.38333E-01 -0.39019E-01 -0.38327E-01 -0.36268E-01
 -0.33103E-01 -0.29709E-01 -0.26806E-01 -0.24776E-01 -0.22265E-01 -0.19304E-01
 -0.20915E-01 -0.17836E-01 -0.15821E-01 -0.15530E-01 -0.14818E-01 -0.12523E-01
 -0.98092E-02 -0.72712E-02 -0.55631E-02 -0.44125E-02 -0.38277E-02 -0.37903E-02
 -0.42741E-02 -0.56213E-02 -0.71823E-02 -0.96843E-02 -0.12599E-01 -0.14664E-01
 -0.15455E-01 -0.16037E-01 -0.17894E-01 -0.21086E-01 -0.25699E-01 -0.30653E-01
 -0.35171E-01 -0.39404E-01 -0.44528E-01 -0.50850E-01 -0.57087E-01 -0.62169E-01
 -0.65376E-01 -0.65370E-01 -0.62428E-01 -0.56986E-01 -0.50800E-01 -0.44695E-01
 -0.39510E-01 -0.35468E-01 -0.30670E-01 -0.25502E-01 -0.23647E-01 -0.19651E-01
 -0.16860E-01 -0.14694E-01 -0.12171E-01 -0.97728E-02 -0.70693E-02 -0.44698E-02
 -0.26498E-02 -0.19197E-02 -0.17108E-02 -0.20013E-02 -0.26800E-02 -0.46198E-02
 -0.71384E-02 -0.96406E-02 -0.12096E-01 -0.14652E-01 -0.17030E-01 -0.19649E-01
 -0.23721E-01 -0.29665E-01 -0.36724E-01 -0.43616E-01 -0.50549E-01 -0.58520E-01
 -0.68170E-01 -0.78440E-01 -0.88457E-01 -0.95964E-01 -0.98672E-01 -0.95975E-01
 -0.88360E-01 -0.78513E-01 -0.68109E-01 -0.58452E-01 -0.50671E-01 -0.43952E-01
 -0.36614E-01 -0.29800E-01 -0.24555E-01 -0.20184E-01 -0.16545E-01 -0.12521E-01
 -0.96264E-02 -0.73338E-02 -0.47358E-02 -0.20637E-02 -0.78620E-03 -0.78534E-03
 -0.75902E-03 -0.67940E-03 -0.20631E-02 -0.49102E-02 -0.74575E-02 -0.95614E-02
 -0.12580E-01 -0.16320E-01 -0.20194E-01 -0.24627E-01 -0.30998E-01 -0.39093E-01
 -0.47967E-01 -0.57405E-01 -0.68078E-01 -0.81102E-01 -0.96161E-01 -0.11229E+00
 -0.12560E+00 -0.13312E+00 -0.13317E+00 -0.12564E+00 -0.11238E+00 -0.96137E-01
 -0.81274E-01 -0.68180E-01 -0.57426E-01 -0.48109E-01 -0.39188E-01 -0.30881E-01
 -0.23631E-01 -0.19024E-01 -0.14056E-01 -0.97628E-02 -0.71003E-02 -0.46812E-02
 -0.21065E-02  0.11289E-03  0.77427E-03  0.68588E-03  0.92908E-03  0.12566E-03
 -0.20598E-02 -0.47686E-02 -0.70806E-02 -0.95722E-02 -0.14229E-01 -0.18946E-01
 -0.23424E-01 -0.29550E-01 -0.37784E-01 -0.47142E-01 -0.57436E-01 -0.70140E-01
 -0.86205E-01 -0.10514E+00 -0.12692E+00 -0.14732E+00 -0.16182E+00 -0.16658E+00
 -0.16170E+00 -0.14753E+00 -0.12675E+00 -0.10514E+00 -0.86124E-01 -0.70273E-01
 -0.57574E-01 -0.47298E-01 -0.38009E-01 -0.29472E-01 -0.20414E-01 -0.16357E-01
 -0.11218E-01 -0.72251E-02 -0.43235E-02 -0.21552E-02  0.21359E-04  0.16682E-02
  0.27486E-02  0.26448E-02  0.17600E-02 -0.10817E-03 -0.20521E-02 -0.43992E-02
 -0.72784E-02 -0.11136E-01 -0.16121E-01 -0.20452E-01 -0.25781E-01 -0.32905E-01
 -0.41584E-01 -0.51337E-01 -0.63882E-01 -0.81103E-01 -0.10234E+00 -0.12716E+00
 -0.15353E+00 -0.17557E+00 -0.18779E+00 -0.18776E+00 -0.17566E+00 -0.15358E+00
 -0.12714E+00 -0.10233E+00 -0.81382E-01 -0.63898E-01 -0.51441E-01 -0.41604E-01
 -0.33162E-01 -0.25860E-01 -0.16553E-01 -0.12512E-01 -0.89699E-02 -0.54284E-02
 -0.26531E-02 -0.82229E-03  0.89642E-03  0.27546E-02  0.36558E-02  0.26848E-02
  0.76051E-03 -0.77207E-03 -0.28041E-02 -0.54894E-02 -0.87754E-02 -0.12592E-01
 -0.16644E-01 -0.20705E-01 -0.25907E-01 -0.32981E-01 -0.41103E-01 -0.51856E-01
 -0.67437E-01 -0.87676E-01 -0.11176E+00 -0.13968E+00 -0.16714E+00 -0.18683E+00
 -0.19390E+00 -0.18677E+00 -0.16714E+00 -0.13974E+00 -0.11177E+00 -0.87592E-01
 -0.67652E-01 -0.51909E-01 -0.41013E-01 -0.32941E-01 -0.26124E-01 -0.20582E-01
 -0.12195E-01 -0.95420E-02 -0.70420E-02 -0.43466E-02 -0.19955E-02 -0.88752E-03
  0.58208E-03  0.27141E-02  0.26940E-02  0.74172E-03 -0.83555E-03 -0.20194E-02
 -0.43517E-02 -0.71012E-02 -0.95313E-02 -0.12337E-01 -0.15100E-01 -0.18918E-01
 -0.23254E-01 -0.28500E-01 -0.36204E-01 -0.47660E-01 -0.63637E-01 -0.83493E-01
 -0.10783E+00 -0.13443E+00 -0.15776E+00 -0.17112E+00 -0.17110E+00 -0.15796E+00
 -0.13463E+00 -0.10796E+00 -0.83732E-01 -0.63654E-01 -0.47550E-01 -0.36043E-01
 -0.28759E-01 -0.23331E-01 -0.18756E-01 -0.15281E-01 -0.87353E-02 -0.75353E-02
 -0.61268E-02 -0.38364E-02 -0.15871E-02 -0.80943E-03  0.84475E-03  0.16405E-02
  0.71167E-03 -0.92278E-03 -0.17300E-02 -0.38135E-02 -0.60764E-02 -0.73706E-02
 -0.88514E-02 -0.10633E-01 -0.12465E-01 -0.14363E-01 -0.16370E-01 -0.19032E-01
 -0.24468E-01 -0.33389E-01 -0.45720E-01 -0.62492E-01 -0.82217E-01 -0.10213E+00
 -0.11679E+00 -0.12229E+00 -0.11669E+00 -0.10191E+00 -0.82075E-01 -0.62579E-01
 -0.45797E-01 -0.33180E-01 -0.24199E-01 -0.19186E-01 -0.16144E-01 -0.14172E-01
 -0.12384E-01 -0.10598E-01 -0.71899E-02 -0.67824E-02 -0.58201E-02 -0.38369E-02
 -0.19947E-02 -0.62711E-03  0.16602E-03 -0.80080E-04 -0.87199E-03 -0.17640E-02
 -0.38361E-02 -0.55989E-02 -0.67570E-02 -0.69347E-02 -0.76885E-02 -0.75973E-02
 -0.70070E-02 -0.49831E-02 -0.29234E-02 -0.12562E-02 -0.84716E-03 -0.34732E-02
 -0.86969E-02 -0.16604E-01 -0.25818E-01 -0.34430E-01 -0.39774E-01 -0.39835E-01
 -0.34439E-01 -0.25991E-01 -0.16546E-01 -0.87682E-02 -0.33982E-02 -0.10287E-02
 -0.13150E-02 -0.28492E-02 -0.52289E-02 -0.70018E-02 -0.75107E-02 -0.75402E-02
 -0.67445E-02 -0.68178E-02 -0.60774E-02 -0.44573E-02 -0.27134E-02 -0.20788E-02
 -0.20781E-02 -0.21376E-02 -0.25665E-02 -0.43579E-02 -0.58538E-02 -0.67361E-02
 -0.66701E-02 -0.62444E-02 -0.48289E-02 -0.13333E-02  0.37754E-02  0.10792E-01
  0.19108E-01  0.28409E-01  0.38121E-01  0.47544E-01  0.56123E-01  0.62809E-01
  0.67841E-01  0.70274E-01  0.70777E-01  0.70251E-01  0.67794E-01  0.62806E-01
  0.55776E-01  0.47590E-01  0.38264E-01  0.28438E-01  0.19168E-01  0.10673E-01
  0.36140E-02 -0.14684E-02 -0.46888E-02 -0.62412E-02 -0.70817E-02 -0.75547E-02
 -0.72829E-02 -0.56142E-02 -0.44010E-02 -0.47652E-02 -0.47973E-02 -0.43257E-02
 -0.55148E-02 -0.72805E-02 -0.76188E-02 -0.69959E-02 -0.63095E-02 -0.37966E-02
  0.13567E-02  0.93911E-02  0.20427E-01  0.35024E-01  0.52599E-01  0.74530E-01
  0.10043E+00  0.12814E+00  0.15545E+00  0.17951E+00  0.19796E+00  0.20719E+00
  0.20738E+00  0.19787E+00  0.17961E+00  0.15527E+00  0.12829E+00  0.10023E+00
  0.74379E-01  0.52653E-01  0.35191E-01  0.20334E-01  0.92822E-02  0.14776E-02
 -0.38093E-02 -0.64453E-02 -0.88389E-02 -0.95285E-02 -0.90172E-02 -0.72430E-02
 -0.70326E-02 -0.74095E-02 -0.70434E-02 -0.72217E-02 -0.88087E-02 -0.95416E-02
 -0.88107E-02 -0.75075E-02 -0.48265E-02  0.13598E-02  0.11442E-01  0.25451E-01
  0.45009E-01  0.69988E-01  0.10292E+00  0.14469E+00  0.19316E+00  0.24377E+00
  0.29304E+00  0.33507E+00  0.36325E+00  0.37314E+00  0.36342E+00  0.33511E+00
  0.29283E+00  0.24376E+00  0.19314E+00  0.14470E+00  0.10303E+00  0.70105E-01
  0.44986E-01  0.25262E-01  0.11382E-01  0.14577E-02 -0.47693E-02 -0.75409E-02
 -0.12048E-01 -0.12542E-01 -0.11128E-01 -0.96869E-02 -0.98414E-02 -0.97939E-02
 -0.97388E-02 -0.11115E-01 -0.12463E-01 -0.12215E-01 -0.10437E-01 -0.76218E-02
 -0.13159E-02  0.94300E-02  0.25459E-01  0.47991E-01  0.79412E-01  0.12171E+00
  0.17712E+00  0.24431E+00  0.31982E+00  0.39860E+00  0.47201E+00  0.52810E+00
  0.55776E+00  0.55779E+00  0.52801E+00  0.47199E+00  0.39870E+00  0.31995E+00
  0.24422E+00  0.17699E+00  0.12192E+00  0.79326E-01  0.47985E-01  0.25380E-01
  0.94481E-02 -0.14504E-02 -0.74934E-02 -0.10731E-01 -0.16558E-01 -0.16143E-01
 -0.14021E-01 -0.12575E-01 -0.12398E-01 -0.12397E-01 -0.14170E-01 -0.16201E-01
 -0.16681E-01 -0.15298E-01 -0.12454E-01 -0.69848E-02  0.36594E-02  0.20435E-01
  0.44899E-01  0.79387E-01  0.12827E+00  0.19405E+00  0.27713E+00  0.37592E+00
  0.48553E+00  0.59292E+00  0.67881E+00  0.73066E+00  0.74747E+00  0.73076E+00
  0.67892E+00  0.59282E+00  0.48559E+00  0.37580E+00  0.27727E+00  0.19403E+00
  0.12825E+00  0.79428E-01  0.44887E-01  0.20543E-01  0.37019E-02 -0.70102E-02
 -0.12357E-01 -0.15457E-01 -0.20514E-01 -0.18881E-01 -0.16254E-01 -0.14769E-01
 -0.14531E-01 -0.16320E-01 -0.18909E-01 -0.20479E-01 -0.20803E-01 -0.18678E-01
 -0.14215E-01 -0.49986E-02  0.10750E-01  0.35098E-01  0.70147E-01  0.12160E+00
  0.19407E+00  0.28844E+00  0.40529E+00  0.54221E+00  0.68085E+00  0.79002E+00
  0.85321E+00  0.87770E+00  0.87759E+00  0.85314E+00  0.79006E+00  0.68067E+00
  0.54246E+00  0.40532E+00  0.28826E+00  0.19415E+00  0.12177E+00  0.70182E-01
  0.35131E-01  0.10843E-01 -0.51654E-02 -0.14178E-01 -0.18635E-01 -0.20630E-01
 -0.23490E-01 -0.20054E-01 -0.16845E-01 -0.15440E-01 -0.16897E-01 -0.20098E-01
 -0.23410E-01 -0.25553E-01 -0.26011E-01 -0.23120E-01 -0.16227E-01 -0.27134E-02
  0.19072E-01  0.52660E-01  0.10291E+00  0.17713E+00  0.27728E+00  0.40529E+00
  0.56188E+00  0.72576E+00  0.85209E+00  0.91337E+00  0.92628E+00  0.92519E+00
  0.92629E+00  0.91344E+00  0.85211E+00  0.72574E+00  0.56202E+00  0.40530E+00
  0.27716E+00  0.17703E+00  0.10312E+00  0.52633E-01  0.19059E-01 -0.28505E-02
 -0.16271E-01 -0.23157E-01 -0.26203E-01 -0.25680E-01 -0.24464E-01 -0.19607E-01
 -0.16012E-01 -0.16096E-01 -0.19650E-01 -0.24567E-01 -0.29485E-01 -0.32941E-01
 -0.33212E-01 -0.28673E-01 -0.19002E-01 -0.12580E-02  0.28392E-01  0.74725E-01
  0.14477E+00  0.24444E+00  0.37590E+00  0.54238E+00  0.72604E+00  0.87091E+00
  0.93184E+00  0.92445E+00  0.90217E+00  0.90231E+00  0.92435E+00  0.93184E+00
  0.87109E+00  0.72571E+00  0.54253E+00  0.37589E+00  0.24453E+00  0.14457E+00
  0.74479E-01  0.28402E-01 -0.13458E-02 -0.19065E-01 -0.28565E-01 -0.33211E-01
 -0.33140E-01 -0.29405E-01 -0.23786E-01 -0.17873E-01 -0.15489E-01 -0.18018E-01
 -0.23627E-01 -0.31068E-01 -0.37976E-01 -0.41577E-01 -0.41148E-01 -0.36142E-01
 -0.24365E-01 -0.91367E-03  0.38274E-01  0.10036E+00  0.19302E+00  0.31992E+00
  0.48544E+00  0.68064E+00  0.85203E+00  0.93169E+00  0.91757E+00  0.87193E+00
  0.85132E+00  0.87206E+00  0.91743E+00  0.93186E+00  0.85199E+00  0.68086E+00
  0.48529E+00  0.31977E+00  0.19297E+00  0.10026E+00  0.37930E-01 -0.92423E-03
 -0.24508E-01 -0.36154E-01 -0.41025E-01 -0.41568E-01 -0.38062E-01 -0.30991E-01
 -0.20998E-01 -0.15281E-01 -0.15419E-01 -0.20921E-01 -0.29706E-01 -0.39044E-01
 -0.47205E-01 -0.51486E-01 -0.51801E-01 -0.47713E-01 -0.33308E-01 -0.34546E-02
  0.47663E-01  0.12829E+00  0.24377E+00  0.39839E+00  0.59294E+00  0.79003E+00
  0.91339E+00  0.92444E+00  0.87198E+00  0.82961E+00  0.82978E+00  0.87204E+00
  0.92449E+00  0.91331E+00  0.79005E+00  0.59299E+00  0.39850E+00  0.24385E+00
  0.12828E+00  0.47648E-01 -0.33301E-02 -0.33207E-01 -0.47803E-01 -0.51875E-01
 -0.51203E-01 -0.47234E-01 -0.39187E-01 -0.29708E-01 -0.16666E-01 -0.12936E-01
 -0.16536E-01 -0.25551E-01 -0.36724E-01 -0.48202E-01 -0.57507E-01 -0.64081E-01
 -0.67623E-01 -0.63698E-01 -0.46019E-01 -0.88368E-02  0.55722E-01  0.15531E+00
  0.29298E+00  0.47189E+00  0.67884E+00  0.85309E+00  0.92616E+00  0.90216E+00
  0.85157E+00  0.82986E+00  0.85126E+00  0.90225E+00  0.92619E+00  0.85314E+00
  0.67888E+00  0.47214E+00  0.29299E+00  0.15544E+00  0.55878E-01 -0.87354E-02
 -0.45977E-01 -0.63676E-01 -0.67484E-01 -0.63872E-01 -0.57473E-01 -0.48209E-01
 -0.36691E-01 -0.25237E-01 -0.12158E-01 -0.11932E-01 -0.19484E-01 -0.30719E-01
 -0.43832E-01 -0.57370E-01 -0.70303E-01 -0.81228E-01 -0.87760E-01 -0.83811E-01
 -0.62538E-01 -0.16617E-01  0.62649E-01  0.17979E+00  0.33503E+00  0.52812E+00
  0.73082E+00  0.87765E+00  0.92519E+00  0.90233E+00  0.87201E+00  0.87202E+00
  0.90219E+00  0.92510E+00  0.87760E+00  0.73086E+00  0.52805E+00  0.33492E+00
  0.17971E+00  0.62674E-01 -0.16484E-01 -0.62467E-01 -0.83762E-01 -0.87646E-01
 -0.81284E-01 -0.70356E-01 -0.57429E-01 -0.43817E-01 -0.30654E-01 -0.19307E-01
 -0.90441E-02 -0.12801E-01 -0.22380E-01 -0.35428E-01 -0.50478E-01 -0.68356E-01
 -0.86027E-01 -0.10239E+00 -0.11203E+00 -0.10780E+00 -0.82242E-01 -0.25888E-01
  0.67821E-01  0.19797E+00  0.36331E+00  0.55782E+00  0.74757E+00  0.87762E+00
  0.92634E+00  0.92435E+00  0.91745E+00  0.92438E+00  0.92639E+00  0.87775E+00
  0.74742E+00  0.55793E+00  0.36328E+00  0.19795E+00  0.67788E-01 -0.25938E-01
 -0.82158E-01 -0.10798E+00 -0.11201E+00 -0.10222E+00 -0.86165E-01 -0.68370E-01
 -0.50758E-01 -0.35407E-01 -0.22368E-01 -0.12871E-01 -0.67913E-02 -0.13474E-01
 -0.24766E-01 -0.39463E-01 -0.58373E-01 -0.81204E-01 -0.10510E+00 -0.12702E+00
 -0.13984E+00 -0.13456E+00 -0.10219E+00 -0.34597E-01  0.70192E-01  0.20736E+00
  0.37307E+00  0.55774E+00  0.73058E+00  0.85305E+00  0.91348E+00  0.93186E+00
  0.93182E+00  0.91351E+00  0.85329E+00  0.73086E+00  0.55779E+00  0.37302E+00
  0.20736E+00  0.70252E-01 -0.34473E-01 -0.10212E+00 -0.13446E+00 -0.13993E+00
 -0.12713E+00 -0.10513E+00 -0.81104E-01 -0.58595E-01 -0.39414E-01 -0.24716E-01
 -0.13496E-01 -0.67936E-02 -0.47023E-02 -0.13295E-01 -0.26607E-01 -0.44694E-01
 -0.67972E-01 -0.96038E-01 -0.12682E+00 -0.15345E+00 -0.16723E+00 -0.15779E+00
 -0.11672E+00 -0.39750E-01  0.70825E-01  0.20736E+00  0.36327E+00  0.52809E+00
  0.67885E+00  0.78990E+00  0.85193E+00  0.87103E+00  0.85199E+00  0.79013E+00
  0.67883E+00  0.52818E+00  0.36343E+00  0.20728E+00  0.70807E-01 -0.39548E-01
 -0.11675E+00 -0.15777E+00 -0.16724E+00 -0.15335E+00 -0.12682E+00 -0.96273E-01
 -0.67973E-01 -0.44805E-01 -0.26605E-01 -0.13231E-01 -0.47161E-02 -0.14751E-02
 -0.27714E-02 -0.13617E-01 -0.29506E-01 -0.50885E-01 -0.78541E-01 -0.11226E+00
 -0.14727E+00 -0.17550E+00 -0.18683E+00 -0.17105E+00 -0.12211E+00 -0.39684E-01
  0.70169E-01  0.19790E+00  0.33509E+00  0.47184E+00  0.59283E+00  0.68078E+00
  0.72579E+00  0.72579E+00  0.68079E+00  0.59279E+00  0.47196E+00  0.33495E+00
  0.19781E+00  0.70347E-01 -0.39764E-01 -0.12211E+00 -0.17098E+00 -0.18703E+00
 -0.17563E+00 -0.14734E+00 -0.11218E+00 -0.78519E-01 -0.50958E-01 -0.29635E-01
 -0.13532E-01 -0.27705E-02  0.22877E-02  0.24901E-02 -0.18440E-02 -0.14877E-01
 -0.32972E-01 -0.57217E-01 -0.88553E-01 -0.12576E+00 -0.16174E+00 -0.18783E+00
 -0.19370E+00 -0.17127E+00 -0.11673E+00 -0.34375E-01  0.67758E-01  0.17954E+00
  0.29291E+00  0.39863E+00  0.48547E+00  0.54254E+00  0.56192E+00  0.54248E+00
  0.48539E+00  0.39859E+00  0.29301E+00  0.17961E+00  0.67648E-01 -0.34560E-01
 -0.11683E+00 -0.17118E+00 -0.19377E+00 -0.18778E+00 -0.16157E+00 -0.12562E+00
 -0.88441E-01 -0.57172E-01 -0.32908E-01 -0.14915E-01 -0.18888E-02  0.48482E-02
  0.64480E-02  0.48681E-02 -0.20856E-02 -0.16754E-01 -0.36423E-01 -0.62337E-01
 -0.95938E-01 -0.13316E+00 -0.16666E+00 -0.18772E+00 -0.18679E+00 -0.15788E+00
 -0.10199E+00 -0.26029E-01  0.62557E-01  0.15518E+00  0.24372E+00  0.31998E+00
  0.37567E+00  0.40535E+00  0.40537E+00  0.37581E+00  0.31977E+00  0.24377E+00
  0.15522E+00  0.62705E-01 -0.25980E-01 -0.10198E+00 -0.15781E+00 -0.18669E+00
 -0.18772E+00 -0.16666E+00 -0.13311E+00 -0.95847E-01 -0.62318E-01 -0.36296E-01
 -0.16718E-01 -0.21026E-02  0.64521E-02  0.94676E-02  0.94411E-02  0.65469E-02
 -0.33200E-02 -0.18404E-01 -0.38257E-01 -0.65572E-01 -0.98608E-01 -0.13325E+00
 -0.16165E+00 -0.17547E+00 -0.16711E+00 -0.13457E+00 -0.82042E-01 -0.16630E-01
  0.55683E-01  0.12813E+00  0.19311E+00  0.24439E+00  0.27728E+00  0.28839E+00
  0.27718E+00  0.24453E+00  0.19298E+00  0.12815E+00  0.55808E-01 -0.16522E-01
 -0.82218E-01 -0.13455E+00 -0.16704E+00 -0.17547E+00 -0.16157E+00 -0.13313E+00
 -0.98693E-01 -0.65325E-01 -0.38308E-01 -0.18305E-01 -0.34383E-02  0.71264E-02
  0.11630E-01  0.12760E-01  0.11728E-01  0.69140E-02 -0.39530E-02 -0.19038E-01
 -0.39107E-01 -0.65407E-01 -0.95951E-01 -0.12560E+00 -0.14738E+00 -0.15349E+00
 -0.13989E+00 -0.10782E+00 -0.62536E-01 -0.88395E-02  0.47456E-01  0.10032E+00
  0.14479E+00  0.17706E+00  0.19417E+00  0.19419E+00  0.17712E+00  0.14461E+00
  0.10020E+00  0.47651E-01 -0.87571E-02 -0.62379E-01 -0.10804E+00 -0.13971E+00
 -0.15333E+00 -0.14712E+00 -0.12546E+00 -0.96033E-01 -0.65484E-01 -0.39134E-01
 -0.18949E-01 -0.40476E-02  0.68424E-02  0.13193E-01  0.15522E-01  0.15448E-01
  0.13374E-01  0.68472E-02 -0.43478E-02 -0.19079E-01 -0.38366E-01 -0.62467E-01
 -0.88386E-01 -0.11219E+00 -0.12681E+00 -0.12715E+00 -0.11199E+00 -0.83732E-01
 -0.46029E-01 -0.34744E-02  0.38106E-01  0.74520E-01  0.10304E+00  0.12188E+00
  0.12832E+00  0.12187E+00  0.10297E+00  0.74385E-01  0.38046E-01 -0.36040E-02
 -0.45898E-01 -0.83586E-01 -0.11195E+00 -0.12712E+00 -0.12683E+00 -0.11218E+00
 -0.88603E-01 -0.62204E-01 -0.38354E-01 -0.19134E-01 -0.43585E-02  0.64139E-02
  0.13345E-01  0.17131E-01  0.18221E-01  0.17132E-01  0.13470E-01  0.65017E-02
 -0.40748E-02 -0.18463E-01 -0.36248E-01 -0.57068E-01 -0.78568E-01 -0.96071E-01
 -0.10508E+00 -0.10240E+00 -0.87676E-01 -0.63826E-01 -0.33267E-01 -0.11300E-02
  0.28557E-01  0.52581E-01  0.70212E-01  0.79332E-01  0.79410E-01  0.70077E-01
  0.52628E-01  0.28565E-01 -0.89130E-03 -0.33226E-01 -0.63851E-01 -0.87760E-01
 -0.10250E+00 -0.10513E+00 -0.96354E-01 -0.78441E-01 -0.56873E-01 -0.36192E-01
 -0.18463E-01 -0.39665E-02  0.66981E-02  0.13346E-01  0.17210E-01  0.19625E-01
  0.19654E-01  0.17328E-01  0.13176E-01  0.66039E-02 -0.32744E-02 -0.16726E-01
 -0.33193E-01 -0.50952E-01 -0.68014E-01 -0.80955E-01 -0.86128E-01 -0.81191E-01
 -0.67644E-01 -0.47654E-01 -0.24445E-01 -0.11502E-02  0.19251E-01  0.34965E-01
  0.44851E-01  0.48032E-01  0.44905E-01  0.35062E-01  0.19091E-01 -0.11295E-02
 -0.24343E-01 -0.47726E-01 -0.67523E-01 -0.81172E-01 -0.86107E-01 -0.81193E-01
 -0.68020E-01 -0.51005E-01 -0.33061E-01 -0.16837E-01 -0.35253E-02  0.68275E-02
  0.13408E-01  0.17386E-01  0.19812E-01  0.20745E-01  0.19643E-01  0.17435E-01
  0.13527E-01  0.67685E-02 -0.21389E-02 -0.14945E-01 -0.29576E-01 -0.44567E-01
 -0.58409E-01 -0.68282E-01 -0.70254E-01 -0.64123E-01 -0.51897E-01 -0.36204E-01
 -0.18942E-01 -0.28569E-02  0.10656E-01  0.20324E-01  0.25523E-01  0.25325E-01
  0.20370E-01  0.10652E-01 -0.28848E-02 -0.19110E-01 -0.36160E-01 -0.51950E-01
 -0.64050E-01 -0.70195E-01 -0.67936E-01 -0.58257E-01 -0.44486E-01 -0.29451E-01
 -0.14897E-01 -0.22726E-02  0.71559E-02  0.13215E-01  0.17205E-01  0.19472E-01
  0.20770E-01  0.20874E-01  0.19446E-01  0.17090E-01  0.13258E-01  0.71119E-02
 -0.19877E-02 -0.13646E-01 -0.26754E-01 -0.39452E-01 -0.50658E-01 -0.57398E-01
 -0.57670E-01 -0.51477E-01 -0.40986E-01 -0.28687E-01 -0.16067E-01 -0.51250E-02
  0.37391E-02  0.92900E-02  0.11177E-01  0.93134E-02  0.37292E-02 -0.50524E-02
 -0.16303E-01 -0.28684E-01 -0.41139E-01 -0.51348E-01 -0.57675E-01 -0.57404E-01
 -0.50439E-01 -0.39532E-01 -0.26847E-01 -0.13465E-01 -0.19331E-02  0.65110E-02
  0.11851E-01  0.15580E-01  0.18201E-01  0.19544E-01  0.19915E-01  0.19524E-01
  0.18125E-01  0.15446E-01  0.11878E-01  0.63798E-02 -0.26150E-02 -0.13391E-01
 -0.24848E-01 -0.35373E-01 -0.43827E-01 -0.48208E-01 -0.47143E-01 -0.41554E-01
 -0.33074E-01 -0.23174E-01 -0.14228E-01 -0.69252E-02 -0.14054E-02  0.14277E-02
  0.15349E-02 -0.13897E-02 -0.68873E-02 -0.14357E-01 -0.23158E-01 -0.33001E-01
 -0.41545E-01 -0.47230E-01 -0.48045E-01 -0.43845E-01 -0.35314E-01 -0.24758E-01
 -0.13267E-01 -0.26540E-02  0.49493E-02  0.93024E-02  0.12585E-01  0.15386E-01
  0.17127E-01  0.17381E-01  0.17245E-01  0.17047E-01  0.15382E-01  0.12738E-01
  0.92619E-02  0.49845E-02 -0.47670E-02 -0.13646E-01 -0.22340E-01 -0.30841E-01
 -0.36526E-01 -0.39209E-01 -0.38043E-01 -0.32942E-01 -0.26104E-01 -0.18941E-01
 -0.12392E-01 -0.75467E-02 -0.47726E-02 -0.38658E-02 -0.46229E-02 -0.76134E-02
 -0.12362E-01 -0.18726E-01 -0.25941E-01 -0.32986E-01 -0.37992E-01 -0.39363E-01
 -0.36835E-01 -0.30697E-01 -0.22584E-01 -0.13546E-01 -0.46167E-02  0.23207E-02
  0.65206E-02  0.93718E-02  0.11917E-01  0.13167E-01  0.13548E-01  0.13335E-01
  0.13436E-01  0.13156E-01  0.11832E-01  0.94842E-02  0.65405E-02  0.23412E-02
 -0.67899E-02 -0.12831E-01 -0.19381E-01 -0.25478E-01 -0.29605E-01 -0.30943E-01
 -0.29447E-01 -0.25749E-01 -0.20641E-01 -0.15465E-01 -0.10501E-01 -0.74675E-02
 -0.62922E-02 -0.63636E-02 -0.74468E-02 -0.10648E-01 -0.15219E-01 -0.20641E-01
 -0.25852E-01 -0.29458E-01 -0.30975E-01 -0.29761E-01 -0.25310E-01 -0.19290E-01
 -0.12903E-01 -0.66802E-02 -0.15357E-02  0.25552E-02  0.49388E-02  0.64805E-02
  0.69357E-02  0.68506E-02  0.64290E-02  0.64308E-02  0.67425E-02  0.70109E-02
  0.63357E-02  0.49038E-02  0.22968E-02 -0.14537E-02  0.35892E-02 -0.51439E-03
 -0.56876E-02 -0.11100E-01 -0.15363E-01 -0.17817E-01 -0.17823E-01 -0.16000E-01
 -0.13702E-01 -0.11556E-01 -0.96006E-02 -0.88921E-02 -0.90462E-02 -0.97531E-02
 -0.11584E-01 -0.13650E-01 -0.15878E-01 -0.17806E-01 -0.17913E-01 -0.15368E-01
 -0.11004E-01 -0.56129E-02 -0.64003E-03  0.38645E-02  0.61998E-02  0.73967E-02
  0.83595E-02  0.84507E-02  0.72961E-02  0.55362E-02  0.44060E-02  0.40534E-02
  0.41332E-02  0.45395E-02  0.57130E-02  0.72724E-02  0.83421E-02  0.85492E-02
  0.77134E-02  0.60357E-02 -0.55640E-03 -0.26786E-02 -0.59618E-02 -0.91231E-02
 -0.12001E-01 -0.13627E-01 -0.12943E-01 -0.11169E-01 -0.98774E-02 -0.89006E-02
 -0.78310E-02 -0.72083E-02 -0.77479E-02 -0.88662E-02 -0.10044E-01 -0.11243E-01
 -0.12914E-01 -0.13558E-01 -0.12049E-01 -0.92226E-02 -0.57554E-02 -0.26868E-02
 -0.43004E-03 -0.12724E-03 -0.10366E-02 -0.20679E-02 -0.40192E-02 -0.64888E-02
 -0.90275E-02 -0.11124E-01 -0.12695E-01 -0.13459E-01 -0.12500E-01 -0.11246E-01
 -0.90753E-02 -0.64894E-02 -0.39233E-02 -0.22425E-02 -0.86002E-03  0.15592E-03
 -0.58289E-02 -0.59750E-02 -0.69802E-02 -0.85017E-02 -0.98684E-02 -0.10017E-01
 -0.83319E-02 -0.74125E-02 -0.68334E-02 -0.59170E-02 -0.51958E-02 -0.51966E-02
 -0.58017E-02 -0.66138E-02 -0.72139E-02 -0.83936E-02 -0.10030E-01 -0.99652E-02
 -0.84228E-02 -0.68850E-02 -0.59325E-02 -0.58289E-02 -0.74150E-02 -0.10665E-01
 -0.14131E-01 -0.18064E-01 -0.22585E-01 -0.27256E-01 -0.31296E-01 -0.35100E-01
 -0.37502E-01 -0.37453E-01 -0.34872E-01 -0.31330E-01 -0.27302E-01 -0.22564E-01
 -0.18149E-01 -0.14204E-01 -0.10678E-01 -0.74419E-02 -0.11055E-01 -0.90578E-02
 -0.84460E-02 -0.86500E-02 -0.87693E-02 -0.74052E-02 -0.53699E-02 -0.43195E-02
 -0.36736E-02 -0.27997E-02 -0.22795E-02 -0.30924E-02 -0.36317E-02 -0.43004E-02
 -0.56299E-02 -0.73452E-02 -0.86234E-02 -0.85359E-02 -0.85214E-02 -0.92363E-02
 -0.10916E-01 -0.14606E-01 -0.19790E-01 -0.25979E-01 -0.32001E-01 -0.38705E-01
 -0.46641E-01 -0.54818E-01 -0.62641E-01 -0.68879E-01 -0.71155E-01 -0.68537E-01
 -0.62634E-01 -0.55010E-01 -0.46464E-01 -0.38844E-01 -0.32122E-01 -0.26092E-01
 -0.19821E-01 -0.14379E-01 -0.15324E-01 -0.11874E-01 -0.98212E-02 -0.86461E-02
 -0.74367E-02 -0.60168E-02 -0.37472E-02 -0.18553E-02 -0.10402E-02 -0.82771E-03
 -0.66481E-03 -0.91394E-03 -0.18460E-02 -0.36839E-02 -0.58781E-02 -0.73387E-02
 -0.83240E-02 -0.98363E-02 -0.11822E-01 -0.15283E-01 -0.20225E-01 -0.27233E-01
 -0.35276E-01 -0.43761E-01 -0.53400E-01 -0.65039E-01 -0.78819E-01 -0.93451E-01
 -0.10559E+00 -0.11251E+00 -0.11262E+00 -0.10562E+00 -0.93276E-01 -0.78702E-01
 -0.65185E-01 -0.53342E-01 -0.43959E-01 -0.35254E-01 -0.27290E-01 -0.20429E-01
 -0.17900E-01 -0.13561E-01 -0.99509E-02 -0.73546E-02 -0.61744E-02 -0.37991E-02
 -0.10418E-02  0.59122E-03  0.90515E-03  0.70316E-03  0.74568E-03  0.67530E-03
 -0.10948E-02 -0.39590E-02 -0.57197E-02 -0.73066E-02 -0.10082E-01 -0.13328E-01
 -0.18095E-01 -0.23658E-01 -0.31325E-01 -0.40447E-01 -0.50881E-01 -0.63449E-01
 -0.79078E-01 -0.98492E-01 -0.12097E+00 -0.14189E+00 -0.15598E+00 -0.16092E+00
 -0.15606E+00 -0.14199E+00 -0.12095E+00 -0.98572E-01 -0.79197E-01 -0.63395E-01
 -0.50946E-01 -0.40396E-01 -0.31279E-01 -0.23761E-01 -0.17757E-01 -0.13042E-01
 -0.85999E-02 -0.55892E-02 -0.36254E-02 -0.13250E-02  0.14086E-02  0.25188E-02
  0.22698E-02  0.21905E-02  0.23711E-02  0.13997E-02 -0.11981E-02 -0.38693E-02
 -0.56563E-02 -0.86611E-02 -0.12987E-01 -0.17781E-01 -0.23809E-01 -0.31567E-01
 -0.40908E-01 -0.51870E-01 -0.66342E-01 -0.85233E-01 -0.10946E+00 -0.13821E+00
 -0.16809E+00 -0.19187E+00 -0.20430E+00 -0.20439E+00 -0.19180E+00 -0.16818E+00
 -0.13817E+00 -0.10931E+00 -0.85271E-01 -0.66312E-01 -0.51898E-01 -0.40843E-01
 -0.31755E-01 -0.23762E-01 -0.16155E-01 -0.11233E-01 -0.72790E-02 -0.41760E-02
 -0.18398E-02  0.66150E-03  0.24935E-02  0.32179E-02  0.33585E-02  0.31022E-02
  0.25376E-02  0.66089E-03 -0.19218E-02 -0.42216E-02 -0.72685E-02 -0.11038E-01
 -0.15957E-01 -0.21004E-01 -0.27888E-01 -0.36872E-01 -0.47538E-01 -0.62117E-01
 -0.82416E-01 -0.10839E+00 -0.14028E+00 -0.17586E+00 -0.20921E+00 -0.23168E+00
 -0.23902E+00 -0.23162E+00 -0.20924E+00 -0.17598E+00 -0.14021E+00 -0.10838E+00
 -0.82389E-01 -0.61946E-01 -0.47625E-01 -0.36679E-01 -0.27947E-01 -0.21007E-01
 -0.13885E-01 -0.97213E-02 -0.65878E-02 -0.36343E-02 -0.12399E-02  0.82224E-03
  0.21647E-02  0.33352E-02  0.33300E-02  0.23979E-02  0.97223E-03 -0.85340E-03
 -0.35811E-02 -0.66400E-02 -0.99774E-02 -0.13789E-01 -0.17856E-01 -0.22710E-01
 -0.29953E-01 -0.39550E-01 -0.52315E-01 -0.70849E-01 -0.95387E-01 -0.12590E+00
 -0.16244E+00 -0.20109E+00 -0.23253E+00 -0.24921E+00 -0.24915E+00 -0.23253E+00
 -0.20114E+00 -0.16262E+00 -0.12577E+00 -0.95389E-01 -0.70679E-01 -0.52548E-01
 -0.39498E-01 -0.30040E-01 -0.22868E-01 -0.17803E-01 -0.11613E-01 -0.89640E-02
 -0.60489E-02 -0.28276E-02 -0.94321E-03  0.60542E-03  0.23714E-02  0.32408E-02
  0.22664E-02  0.46367E-03 -0.57720E-03 -0.29334E-02 -0.58292E-02 -0.89684E-02
 -0.11425E-01 -0.14633E-01 -0.18250E-01 -0.23217E-01 -0.30040E-01 -0.39646E-01
 -0.53451E-01 -0.72708E-01 -0.98164E-01 -0.13059E+00 -0.16798E+00 -0.20376E+00
 -0.22777E+00 -0.23605E+00 -0.22781E+00 -0.20353E+00 -0.16799E+00 -0.13048E+00
 -0.98262E-01 -0.72762E-01 -0.53631E-01 -0.39612E-01 -0.30156E-01 -0.23332E-01
 -0.18416E-01 -0.14571E-01 -0.97049E-02 -0.78493E-02 -0.49183E-02 -0.23294E-02
 -0.73115E-03  0.92382E-03  0.25410E-02  0.24947E-02  0.96637E-03 -0.67437E-03
 -0.24766E-02 -0.51161E-02 -0.77909E-02 -0.97921E-02 -0.11608E-01 -0.14258E-01
 -0.17208E-01 -0.21013E-01 -0.25891E-01 -0.33366E-01 -0.45120E-01 -0.62384E-01
 -0.86173E-01 -0.11594E+00 -0.14751E+00 -0.17350E+00 -0.18754E+00 -0.18745E+00
 -0.17359E+00 -0.14744E+00 -0.11569E+00 -0.86143E-01 -0.62205E-01 -0.45083E-01
 -0.33269E-01 -0.26093E-01 -0.20966E-01 -0.17268E-01 -0.14296E-01 -0.11700E-01
 -0.88419E-02 -0.73768E-02 -0.51481E-02 -0.28995E-02 -0.94175E-03  0.80697E-03
  0.15371E-02  0.69340E-03 -0.11340E-02 -0.28001E-02 -0.52121E-02 -0.74089E-02
 -0.88854E-02 -0.98002E-02 -0.11030E-01 -0.12335E-01 -0.13303E-01 -0.13960E-01
 -0.14576E-01 -0.17732E-01 -0.25025E-01 -0.36935E-01 -0.53231E-01 -0.72655E-01
 -0.91741E-01 -0.10509E+00 -0.10975E+00 -0.10486E+00 -0.91696E-01 -0.72665E-01
 -0.53202E-01 -0.37046E-01 -0.24917E-01 -0.17732E-01 -0.14474E-01 -0.13861E-01
 -0.13130E-01 -0.12193E-01 -0.10960E-01 -0.96742E-02 -0.89253E-02 -0.77333E-02
 -0.59571E-02 -0.34944E-02 -0.19000E-02 -0.11667E-02 -0.12474E-02 -0.18447E-02
 -0.36219E-02 -0.59924E-02 -0.77545E-02 -0.88670E-02 -0.92908E-02 -0.90933E-02
 -0.88178E-02 -0.72023E-02 -0.40303E-02  0.44732E-03  0.52150E-02  0.89121E-02
  0.10800E-01  0.11239E-01  0.94274E-02  0.57886E-02  0.14467E-02 -0.15163E-02
 -0.13532E-02  0.16132E-02  0.58804E-02  0.94513E-02  0.11289E-01  0.10777E-01
  0.88139E-02  0.52035E-02  0.63817E-03 -0.39042E-02 -0.71859E-02 -0.84419E-02
 -0.90989E-02 -0.92311E-02 -0.97484E-02 -0.87561E-02 -0.67079E-02 -0.42309E-02
 -0.35626E-02 -0.39983E-02 -0.36995E-02 -0.42446E-02 -0.65903E-02 -0.86326E-02
 -0.95704E-02 -0.98200E-02 -0.93361E-02 -0.73047E-02 -0.37838E-02  0.25162E-02
  0.11721E-01  0.23024E-01  0.36354E-01  0.52391E-01  0.70468E-01  0.88915E-01
  0.10543E+00  0.11816E+00  0.12571E+00  0.12795E+00  0.12572E+00  0.11802E+00
  0.10535E+00  0.88974E-01  0.70595E-01  0.52454E-01  0.36359E-01  0.23081E-01
  0.11715E-01  0.26894E-02 -0.37762E-02 -0.72733E-02 -0.92598E-02 -0.97341E-02
 -0.11528E-01 -0.99893E-02 -0.70683E-02 -0.57568E-02 -0.60678E-02 -0.59303E-02
 -0.57262E-02 -0.71178E-02 -0.99454E-02 -0.11531E-01 -0.11663E-01 -0.10856E-01
 -0.85481E-02 -0.36651E-02  0.49276E-02  0.18022E-01  0.35003E-01  0.56718E-01
  0.85581E-01  0.12097E+00  0.15943E+00  0.19839E+00  0.23431E+00  0.26174E+00
  0.27594E+00  0.27607E+00  0.26162E+00  0.23411E+00  0.19848E+00  0.15939E+00
  0.12071E+00  0.85544E-01  0.56781E-01  0.34926E-01  0.17987E-01  0.49268E-02
 -0.37577E-02 -0.86651E-02 -0.10919E-01 -0.11894E-01 -0.13685E-01 -0.11387E-01
 -0.85331E-02 -0.74770E-02 -0.75695E-02 -0.74083E-02 -0.86544E-02 -0.11143E-01
 -0.13534E-01 -0.14619E-01 -0.14346E-01 -0.12319E-01 -0.70696E-02  0.23570E-02
  0.17920E-01  0.39125E-01  0.67916E-01  0.10674E+00  0.15671E+00  0.21534E+00