    2    2    1    1
  0.4204385E+01  0.2282527E-09  0.2282527E-09  0.2282527E-09  0.5000000E-15
  1.000000000000000E-004
  CAR 
 unknown system                          
    8   72   12
