unknown system                          
   1.00000000000000     
    -1.613990    0.000000    1.613990
     0.000000    1.613990    1.613990
    -1.613990    1.613990    0.000000
   C 
     2
Direct
  0.875000  0.875000  0.875000
  0.125000  0.125000  0.125000
 
   28   28   28
 0.18407397811E+02 0.18321662878E+02 0.18082802147E+02 0.17680779579E+02 0.17115582549E+02
 0.16475630414E+02 0.15951108995E+02 0.15746638065E+02 0.15951142109E+02 0.16475687632E+02
 0.17115649199E+02 0.17680841279E+02 0.18082850296E+02 0.18321698134E+02 0.18407427593E+02
 0.18321698134E+02 0.18082850296E+02 0.17680841279E+02 0.17115649199E+02 0.16475687632E+02
 0.15951142109E+02 0.15746638065E+02 0.15951108995E+02 0.16475630414E+02 0.17115582549E+02
 0.17680779579E+02 0.18082802147E+02 0.18321662878E+02 0.18321662878E+02 0.18510188508E+02
 0.18459528765E+02 0.18097653063E+02 0.17459518725E+02 0.16750913695E+02 0.16280486686E+02
 0.16280486314E+02 0.16750919183E+02 0.17459543353E+02 0.18097703948E+02 0.18459596769E+02
 0.18510251518E+02 0.18321700945E+02 0.17962304694E+02 0.17460645454E+02 0.16877205147E+02
 0.16246994213E+02 0.15611089858E+02 0.15063859116E+02 0.14739456754E+02 0.14739431273E+02
 0.15063796278E+02 0.15611021250E+02 0.16246949073E+02 0.16877191191E+02 0.17460646738E+02
 0.17962295098E+02 0.18082802147E+02 0.18459528765E+02 0.18438381955E+02 0.17957203953E+02
 0.17167951522E+02 0.16430128496E+02 0.16128787709E+02 0.16430094745E+02 0.17167912559E+02
 0.17957194660E+02 0.18438416914E+02 0.18459590318E+02 0.18082852438E+02 0.17460656348E+02
 0.16708501887E+02 0.15893982226E+02 0.15097755735E+02 0.14372842358E+02 0.13768372733E+02
 0.13355172065E+02 0.13206721207E+02 0.13355131331E+02 0.13768320967E+02 0.14372816338E+02
 0.15097771781E+02 0.15894024297E+02 0.16708533093E+02 0.17460646738E+02 0.17680779579E+02
 0.18097653063E+02 0.17957203953E+02 0.17291451139E+02 0.16413969476E+02 0.15798137814E+02
 0.15798109682E+02 0.16413904013E+02 0.17291391303E+02 0.17957186288E+02 0.18097682929E+02
 0.17680828387E+02 0.16877218211E+02 0.15894006361E+02 0.14863265383E+02 0.13878649439E+02
 0.13011898310E+02 0.12306850140E+02 0.11800016882E+02 0.11531623749E+02 0.11531610697E+02
 0.11799991008E+02 0.12306840252E+02 0.13011924731E+02 0.13878705258E+02 0.14863318889E+02
 0.15894024297E+02 0.16877191191E+02 0.17115582549E+02 0.17459518725E+02 0.17167951522E+02
 0.16413969476E+02 0.15636813980E+02 0.15309694784E+02 0.15636771852E+02 0.16413911550E+02
 0.17167912768E+02 0.17459519669E+02 0.17115616696E+02 0.16246989111E+02 0.15097788999E+02
 0.13878688620E+02 0.12710589608E+02 0.11692997288E+02 0.10873004784E+02 0.10267191025E+02
 0.98922572633E+01 0.97648070918E+01 0.98922524669E+01 0.10267193146E+02 0.10873025808E+02
 0.11693035978E+02 0.12710628714E+02 0.13878705258E+02 0.15097771781E+02 0.16246949073E+02
 0.16475630414E+02 0.16750913695E+02 0.16430128496E+02 0.15798137814E+02 0.15309694784E+02
 0.15309686319E+02 0.15798118258E+02 0.16430112235E+02 0.16750914215E+02 0.16475652602E+02
 0.15611058766E+02 0.14372855406E+02 0.13011952310E+02 0.11693045775E+02 0.10522672522E+02
 0.95754405524E+01 0.88683301526E+01 0.83978359692E+01 0.81618449588E+01 0.81618480762E+01
 0.83978451076E+01 0.88683436929E+01 0.95754538280E+01 0.10522678011E+02 0.11693035978E+02
 0.13011924731E+02 0.14372816338E+02 0.15611021250E+02 0.15951108995E+02 0.16280486686E+02
 0.16128787709E+02 0.15798109682E+02 0.15636771852E+02 0.15798118258E+02 0.16128801606E+02
 0.16280502417E+02 0.15951125848E+02 0.15063817820E+02 0.13768351056E+02 0.12306879004E+02
 0.10873067036E+02 0.95754869784E+01 0.85030855007E+01 0.76867123827E+01 0.71187886474E+01
 0.67842025962E+01 0.66735730219E+01 0.67842128919E+01 0.71188004864E+01 0.76867138713E+01
 0.85030691287E+01 0.95754538280E+01 0.10873025808E+02 0.12306840252E+02 0.13768320967E+02
 0.15063796278E+02 0.15746638065E+02 0.16280486314E+02 0.16430094745E+02 0.16413904013E+02
 0.16413911550E+02 0.16430112235E+02 0.16280502417E+02 0.15746644226E+02 0.14739428596E+02
 0.13355130155E+02 0.11800002939E+02 0.10267221763E+02 0.88683810966E+01 0.76867453277E+01
 0.67664221220E+01 0.61030183534E+01 0.56757050606E+01 0.54665169975E+01 0.54665227696E+01
 0.56757164890E+01 0.61030223288E+01 0.67664081906E+01 0.76867138713E+01 0.88683436929E+01
 0.10267193146E+02 0.11799991008E+02 0.13355131331E+02 0.14739431273E+02 0.15951142109E+02
 0.16750919183E+02 0.17167912559E+02 0.17291391303E+02 0.17167912768E+02 0.16750914215E+02
 0.15951125848E+02 0.14739428596E+02 0.13206688680E+02 0.11531585541E+02 0.98922432714E+01
 0.83978518000E+01 0.71188145263E+01 0.61030328639E+01 0.53495280195E+01 0.48353684066E+01
 0.45368662526E+01 0.44389902653E+01 0.45368729110E+01 0.48353751637E+01 0.53495272084E+01
 0.61030223288E+01 0.71188004864E+01 0.83978451076E+01 0.98922524669E+01 0.11531610697E+02
 0.13206721207E+02 0.14739456754E+02 0.16475687632E+02 0.17459543353E+02 0.17957194660E+02
 0.17957186288E+02 0.17459519669E+02 0.16475652602E+02 0.15063817820E+02 0.13355130155E+02
 0.11531585541E+02 0.97647752368E+01 0.81618239059E+01 0.67841961079E+01 0.56757059825E+01
 0.48353693960E+01 0.42385479155E+01 0.38574119976E+01 0.36717526786E+01 0.36717528511E+01
 0.38574129335E+01 0.42385505320E+01 0.48353751637E+01 0.56757164890E+01 0.67842128919E+01
 0.81618480762E+01 0.97648070918E+01 0.11531623749E+02 0.13355172065E+02 0.15063859116E+02
 0.17115649199E+02 0.18097703948E+02 0.18438416914E+02 0.18097682929E+02 0.17115616696E+02
 0.15611058766E+02 0.13768351056E+02 0.11800002939E+02 0.98922432714E+01 0.81618239059E+01
 0.66735449085E+01 0.54664953724E+01 0.45368556141E+01 0.38574100267E+01 0.33966164932E+01
 0.31297004980E+01 0.30422455688E+01 0.31296930493E+01 0.33966093749E+01 0.38574129335E+01
 0.45368729110E+01 0.54665227696E+01 0.66735730219E+01 0.81618449588E+01 0.98922572633E+01
 0.11800016882E+02 0.13768372733E+02 0.15611089858E+02 0.17680841279E+02 0.18459596769E+02
 0.18459590318E+02 0.17680828387E+02 0.16246989111E+02 0.14372855406E+02 0.12306879004E+02
 0.10267221763E+02 0.83978518000E+01 0.67841961079E+01 0.54664953724E+01 0.44389699437E+01
 0.36717476943E+01 0.31297044681E+01 0.27837868985E+01 0.26152026274E+01 0.26151948082E+01
 0.27837699361E+01 0.31296930493E+01 0.36717528511E+01 0.44389902653E+01 0.54665169975E+01
 0.67842025962E+01 0.83978359692E+01 0.10267191025E+02 0.12306850140E+02 0.14372842358E+02
 0.16246994213E+02 0.18082850296E+02 0.18510251518E+02 0.18082852438E+02 0.16877218211E+02
 0.15097788999E+02 0.13011952310E+02 0.10873067036E+02 0.88683810966E+01 0.71188145263E+01
 0.56757059825E+01 0.45368556141E+01 0.36717476943E+01 0.30422551115E+01 0.26152140808E+01
 0.23674955865E+01 0.22862562903E+01 0.23674802640E+01 0.26151948082E+01 0.30422455688E+01
 0.36717526786E+01 0.45368662526E+01 0.56757050606E+01 0.71187886474E+01 0.88683301526E+01
 0.10873004784E+02 0.13011898310E+02 0.15097755735E+02 0.16877205147E+02 0.18321698134E+02
 0.18321700945E+02 0.17460656348E+02 0.15894006361E+02 0.13878688620E+02 0.11693045775E+02
 0.95754869784E+01 0.76867453277E+01 0.61030328639E+01 0.48353693960E+01 0.38574100267E+01
 0.31297044681E+01 0.26152140808E+01 0.22862689614E+01 0.21257462352E+01 0.21257407188E+01
 0.22862562903E+01 0.26152026274E+01 0.31297004980E+01 0.38574119976E+01 0.48353684066E+01
 0.61030183534E+01 0.76867123827E+01 0.95754405524E+01 0.11692997288E+02 0.13878649439E+02
 0.15893982226E+02 0.17460645454E+02 0.18407427593E+02 0.17962304694E+02 0.16708501887E+02
 0.14863265383E+02 0.12710589608E+02 0.10522672522E+02 0.85030855007E+01 0.67664221220E+01
 0.53495280195E+01 0.42385479155E+01 0.33966164932E+01 0.27837868985E+01 0.23674955865E+01
 0.21257462352E+01 0.20464297541E+01 0.21257462352E+01 0.23674955865E+01 0.27837868985E+01
 0.33966164932E+01 0.42385479155E+01 0.53495280195E+01 0.67664221220E+01 0.85030855007E+01
 0.10522672522E+02 0.12710589608E+02 0.14863265383E+02 0.16708501887E+02 0.17962304694E+02
 0.18321698134E+02 0.17460645454E+02 0.15893982226E+02 0.13878649439E+02 0.11692997288E+02
 0.95754405524E+01 0.76867123827E+01 0.61030183534E+01 0.48353684066E+01 0.38574119976E+01
 0.31297004980E+01 0.26152026274E+01 0.22862562903E+01 0.21257407188E+01 0.21257462352E+01
 0.22862689614E+01 0.26152140808E+01 0.31297044681E+01 0.38574100267E+01 0.48353693960E+01
 0.61030328639E+01 0.76867453277E+01 0.95754869784E+01 0.11693045775E+02 0.13878688620E+02
 0.15894006361E+02 0.17460656348E+02 0.18321700945E+02 0.18082850296E+02 0.16877205147E+02
 0.15097755735E+02 0.13011898310E+02 0.10873004784E+02 0.88683301526E+01 0.71187886474E+01
 0.56757050606E+01 0.45368662526E+01 0.36717526786E+01 0.30422455688E+01 0.26151948082E+01
 0.23674802640E+01 0.22862562903E+01 0.23674955865E+01 0.26152140808E+01 0.30422551115E+01
 0.36717476943E+01 0.45368556141E+01 0.56757059825E+01 0.71188145263E+01 0.88683810966E+01
 0.10873067036E+02 0.13011952310E+02 0.15097788999E+02 0.16877218211E+02 0.18082852438E+02
 0.18510251518E+02 0.17680841279E+02 0.16246994213E+02 0.14372842358E+02 0.12306850140E+02
 0.10267191025E+02 0.83978359692E+01 0.67842025962E+01 0.54665169975E+01 0.44389902653E+01
 0.36717528511E+01 0.31296930493E+01 0.27837699361E+01 0.26151948082E+01 0.26152026274E+01
 0.27837868985E+01 0.31297044681E+01 0.36717476943E+01 0.44389699437E+01 0.54664953724E+01
 0.67841961079E+01 0.83978518000E+01 0.10267221763E+02 0.12306879004E+02 0.14372855406E+02
 0.16246989111E+02 0.17680828387E+02 0.18459590318E+02 0.18459596769E+02 0.17115649199E+02
 0.15611089858E+02 0.13768372733E+02 0.11800016882E+02 0.98922572633E+01 0.81618449588E+01
 0.66735730219E+01 0.54665227696E+01 0.45368729110E+01 0.38574129335E+01 0.33966093749E+01
 0.31296930493E+01 0.30422455688E+01 0.31297004980E+01 0.33966164932E+01 0.38574100267E+01
 0.45368556141E+01 0.54664953724E+01 0.66735449085E+01 0.81618239059E+01 0.98922432714E+01
 0.11800002939E+02 0.13768351056E+02 0.15611058766E+02 0.17115616696E+02 0.18097682929E+02
 0.18438416914E+02 0.18097703948E+02 0.16475687632E+02 0.15063859116E+02 0.13355172065E+02
 0.11531623749E+02 0.97648070918E+01 0.81618480762E+01 0.67842128919E+01 0.56757164890E+01
 0.48353751637E+01 0.42385505320E+01 0.38574129335E+01 0.36717528511E+01 0.36717526786E+01
 0.38574119976E+01 0.42385479155E+01 0.48353693960E+01 0.56757059825E+01 0.67841961079E+01
 0.81618239059E+01 0.97647752368E+01 0.11531585541E+02 0.13355130155E+02 0.15063817820E+02
 0.16475652602E+02 0.17459519669E+02 0.17957186288E+02 0.17957194660E+02 0.17459543353E+02
 0.15951142109E+02 0.14739456754E+02 0.13206721207E+02 0.11531610697E+02 0.98922524669E+01
 0.83978451076E+01 0.71188004864E+01 0.61030223288E+01 0.53495272084E+01 0.48353751637E+01
 0.45368729110E+01 0.44389902653E+01 0.45368662526E+01 0.48353684066E+01 0.53495280195E+01
 0.61030328639E+01 0.71188145263E+01 0.83978518000E+01 0.98922432714E+01 0.11531585541E+02
 0.13206688680E+02 0.14739428596E+02 0.15951125848E+02 0.16750914215E+02 0.17167912768E+02
 0.17291391303E+02 0.17167912559E+02 0.16750919183E+02 0.15746638065E+02 0.14739431273E+02
 0.13355131331E+02 0.11799991008E+02 0.10267193146E+02 0.88683436929E+01 0.76867138713E+01
 0.67664081906E+01 0.61030223288E+01 0.56757164890E+01 0.54665227696E+01 0.54665169975E+01
 0.56757050606E+01 0.61030183534E+01 0.67664221220E+01 0.76867453277E+01 0.88683810966E+01
 0.10267221763E+02 0.11800002939E+02 0.13355130155E+02 0.14739428596E+02 0.15746644226E+02
 0.16280502417E+02 0.16430112235E+02 0.16413911550E+02 0.16413904013E+02 0.16430094745E+02
 0.16280486314E+02 0.15951108995E+02 0.15063796278E+02 0.13768320967E+02 0.12306840252E+02
 0.10873025808E+02 0.95754538280E+01 0.85030691287E+01 0.76867138713E+01 0.71188004864E+01
 0.67842128919E+01 0.66735730219E+01 0.67842025962E+01 0.71187886474E+01 0.76867123827E+01
 0.85030855007E+01 0.95754869784E+01 0.10873067036E+02 0.12306879004E+02 0.13768351056E+02
 0.15063817820E+02 0.15951125848E+02 0.16280502417E+02 0.16128801606E+02 0.15798118258E+02
 0.15636771852E+02 0.15798109682E+02 0.16128787709E+02 0.16280486686E+02 0.16475630414E+02
 0.15611021250E+02 0.14372816338E+02 0.13011924731E+02 0.11693035978E+02 0.10522678011E+02
 0.95754538280E+01 0.88683436929E+01 0.83978451076E+01 0.81618480762E+01 0.81618449588E+01
 0.83978359692E+01 0.88683301526E+01 0.95754405524E+01 0.10522672522E+02 0.11693045775E+02
 0.13011952310E+02 0.14372855406E+02 0.15611058766E+02 0.16475652602E+02 0.16750914215E+02
 0.16430112235E+02 0.15798118258E+02 0.15309686319E+02 0.15309694784E+02 0.15798137814E+02
 0.16430128496E+02 0.16750913695E+02 0.17115582549E+02 0.16246949073E+02 0.15097771781E+02
 0.13878705258E+02 0.12710628714E+02 0.11693035978E+02 0.10873025808E+02 0.10267193146E+02
 0.98922524669E+01 0.97648070918E+01 0.98922572633E+01 0.10267191025E+02 0.10873004784E+02
 0.11692997288E+02 0.12710589608E+02 0.13878688620E+02 0.15097788999E+02 0.16246989111E+02
 0.17115616696E+02 0.17459519669E+02 0.17167912768E+02 0.16413911550E+02 0.15636771852E+02
 0.15309694784E+02 0.15636813980E+02 0.16413969476E+02 0.17167951522E+02 0.17459518725E+02
 0.17680779579E+02 0.16877191191E+02 0.15894024297E+02 0.14863318889E+02 0.13878705258E+02
 0.13011924731E+02 0.12306840252E+02 0.11799991008E+02 0.11531610697E+02 0.11531623749E+02
 0.11800016882E+02 0.12306850140E+02 0.13011898310E+02 0.13878649439E+02 0.14863265383E+02
 0.15894006361E+02 0.16877218211E+02 0.17680828387E+02 0.18097682929E+02 0.17957186288E+02
 0.17291391303E+02 0.16413904013E+02 0.15798109682E+02 0.15798137814E+02 0.16413969476E+02
 0.17291451139E+02 0.17957203953E+02 0.18097653063E+02 0.18082802147E+02 0.17460646738E+02
 0.16708533093E+02 0.15894024297E+02 0.15097771781E+02 0.14372816338E+02 0.13768320967E+02
 0.13355131331E+02 0.13206721207E+02 0.13355172065E+02 0.13768372733E+02 0.14372842358E+02
 0.15097755735E+02 0.15893982226E+02 0.16708501887E+02 0.17460656348E+02 0.18082852438E+02
 0.18459590318E+02 0.18438416914E+02 0.17957194660E+02 0.17167912559E+02 0.16430094745E+02
 0.16128787709E+02 0.16430128496E+02 0.17167951522E+02 0.17957203953E+02 0.18438381955E+02
 0.18459528765E+02 0.18321662878E+02 0.17962295098E+02 0.17460646738E+02 0.16877191191E+02
 0.16246949073E+02 0.15611021250E+02 0.15063796278E+02 0.14739431273E+02 0.14739456754E+02
 0.15063859116E+02 0.15611089858E+02 0.16246994213E+02 0.16877205147E+02 0.17460645454E+02
 0.17962304694E+02 0.18321700945E+02 0.18510251518E+02 0.18459596769E+02 0.18097703948E+02
 0.17459543353E+02 0.16750919183E+02 0.16280486314E+02 0.16280486686E+02 0.16750913695E+02
 0.17459518725E+02 0.18097653063E+02 0.18459528765E+02 0.18510188508E+02 0.18321662878E+02
 0.18510188508E+02 0.18459528765E+02 0.18097653063E+02 0.17459518725E+02 0.16750913695E+02
 0.16280486686E+02 0.16280486314E+02 0.16750919183E+02 0.17459543353E+02 0.18097703948E+02
 0.18459596769E+02 0.18510251518E+02 0.18321700945E+02 0.17962304694E+02 0.17460645454E+02
 0.16877205147E+02 0.16246994213E+02 0.15611089858E+02 0.15063859116E+02 0.14739456754E+02
 0.14739431273E+02 0.15063796278E+02 0.15611021250E+02 0.16246949073E+02 0.16877191191E+02
 0.17460646738E+02 0.17962295098E+02 0.18510188508E+02 0.18874309355E+02 0.18812645455E+02
 0.18262322153E+02 0.17389954684E+02 0.16583002982E+02 0.16254657135E+02 0.16582957054E+02
 0.17389897592E+02 0.18262297926E+02 0.18812675130E+02 0.18874376215E+02 0.18510250597E+02
 0.17881840770E+02 0.17113329062E+02 0.16274135804E+02 0.15450348691E+02 0.14698058191E+02
 0.14069169675E+02 0.13638500153E+02 0.13483630133E+02 0.13638452878E+02 0.14069107628E+02
 0.14698021945E+02 0.15450355931E+02 0.16274169258E+02 0.17113349705E+02 0.17881818377E+02
 0.18459528765E+02 0.18812645455E+02 0.18531214470E+02 0.17664712816E+02 0.16584158461E+02
 0.15839409238E+02 0.15839363873E+02 0.16584048982E+02 0.17664601630E+02 0.18531157616E+02
 0.18812657476E+02 0.18459577892E+02 0.17658295354E+02 0.16643581712E+02 0.15567287242E+02
 0.14526251888E+02 0.13604373618E+02 0.12852603548E+02 0.12311178568E+02 0.12024099325E+02
 0.12024079744E+02 0.12311136990E+02 0.12852577482E+02 0.13604390138E+02 0.14526304526E+02
 0.15567338953E+02 0.16643594177E+02 0.17658260834E+02 0.18097653063E+02 0.18262322153E+02
 0.17664712816E+02 0.16544987658E+02 0.15465345188E+02 0.15020440744E+02 0.15465255311E+02
 0.16544854198E+02 0.17664599195E+02 0.18262269876E+02 0.18097659905E+02 0.17282897911E+02
 0.16105005731E+02 0.14822088038E+02 0.13578049162E+02 0.12479965655E+02 0.11588179535E+02
 0.10927856143E+02 0.10519187744E+02 0.10380275269E+02 0.10519169979E+02 0.10927841866E+02
 0.11588192498E+02 0.12480009900E+02 0.13578102643E+02 0.14822118670E+02 0.16104997987E+02
 0.17282869294E+02 0.17459518725E+02 0.17389954684E+02 0.16584158461E+02 0.15465345188E+02
 0.14669256687E+02 0.14669224125E+02 0.15465263286E+02 0.16584065294E+02 0.17389888292E+02
 0.17459495946E+02 0.16755193798E+02 0.15529523097E+02 0.14102409900E+02 0.12694301287E+02
 0.11425457545E+02 0.10387821171E+02 0.96093920352E+01 0.90902677843E+01 0.88296278314E+01
 0.88296254218E+01 0.90902653124E+01 0.96093991281E+01 0.10387841843E+02 0.11425483940E+02
 0.12694317805E+02 0.14102405811E+02 0.15529504268E+02 0.16755182914E+02 0.16750913695E+02
 0.16583002982E+02 0.15839409238E+02 0.15020440744E+02 0.14669224125E+02 0.15020424092E+02
 0.15839382840E+02 0.16582977825E+02 0.16750899342E+02 0.16157224220E+02 0.14953515853E+02
 0.13452390323E+02 0.11926663834E+02 0.10524071835E+02 0.93464396655E+01 0.84442127935E+01
 0.78156501950E+01 0.74455344428E+01 0.73232391046E+01 0.74455396395E+01 0.78156575761E+01
 0.84442174314E+01 0.93464368410E+01 0.10524059370E+02 0.11926643651E+02 0.13452368728E+02
 0.14953501043E+02 0.16157223072E+02 0.16280486686E+02 0.16254657135E+02 0.15839363873E+02
 0.15465255311E+02 0.15465263286E+02 0.15839382840E+02 0.16254675989E+02 0.16280496620E+02
 0.15666727973E+02 0.14460293310E+02 0.12914051397E+02 0.11304601760E+02 0.98058500463E+01
 0.85136730518E+01 0.74968846084E+01 0.67623277484E+01 0.62899059605E+01 0.60591424736E+01
 0.60591478835E+01 0.62899168852E+01 0.67623322031E+01 0.74968730357E+01 0.85136456333E+01
 0.98058168914E+01 0.11304575898E+02 0.12914039628E+02 0.14460292087E+02 0.15666726833E+02
 0.16280486314E+02 0.16582957054E+02 0.16584048982E+02 0.16544854198E+02 0.16584065294E+02
 0.16582977825E+02 0.16280496620E+02 0.15475428155E+02 0.14168645593E+02 0.12547902471E+02
 0.10858601013E+02 0.92784695748E+01 0.78952503791E+01 0.67797407208E+01 0.59486087044E+01
 0.53822739849E+01 0.50545682405E+01 0.49473751380E+01 0.50545781136E+01 0.53822837763E+01
 0.59486065766E+01 0.67797227015E+01 0.78952243277E+01 0.92784501230E+01 0.10858598887E+02
 0.12547916573E+02 0.14168663461E+02 0.15475434926E+02 0.16750919183E+02 0.17389897592E+02
 0.17664601630E+02 0.17664599195E+02 0.17389888292E+02 0.16750899342E+02 0.15666727973E+02
 0.14168645593E+02 0.12416712100E+02 0.10622873672E+02 0.89521441401E+01 0.74845940042E+01
 0.62809202268E+01 0.53621538193E+01 0.47099510227E+01 0.42949871348E+01 0.40935806792E+01
 0.40935842859E+01 0.42949950553E+01 0.47099571363E+01 0.53621537108E+01 0.62809156149E+01
 0.74845922375E+01 0.89521537430E+01 0.10622898428E+02 0.12416748307E+02 0.14168684128E+02
 0.15666759365E+02 0.17459543353E+02 0.18262297926E+02 0.18531157616E+02 0.18262269876E+02
 0.17459495946E+02 0.16157224220E+02 0.14460293310E+02 0.12547902471E+02 0.10622873672E+02
 0.88411565020E+01 0.72787588510E+01 0.59865373986E+01 0.49831750893E+01 0.42495623194E+01
 0.37538246199E+01 0.34679042060E+01 0.33744786995E+01 0.34679035098E+01 0.37538255360E+01
 0.42495676138E+01 0.49831859113E+01 0.59865527375E+01 0.72787770949E+01 0.88411779983E+01
 0.10622901379E+02 0.12547940102E+02 0.14460341760E+02 0.16157277750E+02 0.18097703948E+02
 0.18812675130E+02 0.18812657476E+02 0.18097659905E+02 0.16755193798E+02 0.14953515853E+02
 0.12914051397E+02 0.10858601013E+02 0.89521441401E+01 0.72787588510E+01 0.58890643113E+01
 0.47970337641E+01 0.39810439514E+01 0.34064690572E+01 0.30414432069E+01 0.28641652811E+01
 0.28641600067E+01 0.30414324204E+01 0.34064635370E+01 0.39810516158E+01 0.47970527438E+01
 0.58890844839E+01 0.72787699105E+01 0.89521447024E+01 0.10858601188E+02 0.12914065405E+02
 0.14953551390E+02 0.16755243523E+02 0.18459596769E+02 0.18874376215E+02 0.18459577892E+02
 0.17282897911E+02 0.15529523097E+02 0.13452390323E+02 0.11304601760E+02 0.92784695748E+01
 0.74845940042E+01 0.59865373986E+01 0.47970337641E+01 0.38927363663E+01 0.32365639099E+01
 0.27932666876E+01 0.25370413033E+01 0.24531778794E+01 0.25370262725E+01 0.27932485625E+01
 0.32365568839E+01 0.38927449966E+01 0.47970485952E+01 0.59865413588E+01 0.74845756749E+01
 0.92784324600E+01 0.11304563572E+02 0.13452370230E+02 0.15529528737E+02 0.17282920019E+02
 0.18510251518E+02 0.18510250597E+02 0.17658295354E+02 0.16105005731E+02 0.14102409900E+02
 0.11926663834E+02 0.98058500463E+01 0.78952503791E+01 0.62809202268E+01 0.49831750893E+01
 0.39810439514E+01 0.32365639099E+01 0.27117407923E+01 0.23771386485E+01 0.22141626954E+01
 0.22141545559E+01 0.23771201206E+01 0.27117248690E+01 0.32365601583E+01 0.39810502998E+01
 0.49831782632E+01 0.62809048655E+01 0.78952105578E+01 0.98057935758E+01 0.11926608314E+02
 0.14102371438E+02 0.16104988869E+02 0.17658292974E+02 0.18321700945E+02 0.17881840770E+02
 0.16643581712E+02 0.14822088038E+02 0.12694301287E+02 0.10524071835E+02 0.85136730518E+01
 0.67797407208E+01 0.53621538193E+01 0.42495623194E+01 0.34064690572E+01 0.27932666876E+01
 0.23771386485E+01 0.21356824400E+01 0.20564939925E+01 0.21356745884E+01 0.23771283806E+01
 0.27932606808E+01 0.34064700316E+01 0.42495664312E+01 0.53621530482E+01 0.67797277565E+01
 0.85136465556E+01 0.10524037164E+02 0.12694266891E+02 0.14822061279E+02 0.16643565501E+02
 0.17881833706E+02 0.17962304694E+02 0.17113329062E+02 0.15567287242E+02 0.13578049162E+02
 0.11425457545E+02 0.93464396655E+01 0.74968846084E+01 0.59486087044E+01 0.47099510227E+01
 0.37538246199E+01 0.30414432069E+01 0.25370413033E+01 0.22141626954E+01 0.20564939925E+01
 0.20564953558E+01 0.22141659044E+01 0.25370445409E+01 0.30414455980E+01 0.37538274273E+01
 0.47099570792E+01 0.59486203600E+01 0.74969013456E+01 0.93464579326E+01 0.11425472463E+02
 0.13578057299E+02 0.15567288620E+02 0.17113327058E+02 0.17962303468E+02 0.17460645454E+02
 0.16274135804E+02 0.14526251888E+02 0.12479965655E+02 0.10387821171E+02 0.84442127935E+01
 0.67623277484E+01 0.53822739849E+01 0.42949871348E+01 0.34679042060E+01 0.28641652811E+01
 0.24531778794E+01 0.22141545559E+01 0.21356745884E+01 0.22141659044E+01 0.24531925622E+01
 0.28641738692E+01 0.34679038811E+01 0.42949851471E+01 0.53822831072E+01 0.67623578416E+01
 0.84442631065E+01 0.10387879992E+02 0.12480017736E+02 0.14526286868E+02 0.16274152804E+02
 0.17460650829E+02 0.17881833706E+02 0.16877205147E+02 0.15450348691E+02 0.13604373618E+02
 0.11588179535E+02 0.96093920352E+01 0.78156501950E+01 0.62899059605E+01 0.50545682405E+01
 0.40935806792E+01 0.33744786995E+01 0.28641600067E+01 0.25370262725E+01 0.23771201206E+01
 0.23771283806E+01 0.25370445409E+01 0.28641738692E+01 0.33744772535E+01 0.40935657540E+01
 0.50545544566E+01 0.62899111224E+01 0.78156831795E+01 0.96094469281E+01 0.11588239171E+02
 0.13604420273E+02 0.15450374852E+02 0.16877214807E+02 0.17658294721E+02 0.17658292974E+02
 0.16246994213E+02 0.14698058191E+02 0.12852603548E+02 0.10927856143E+02 0.90902677843E+01
 0.74455344428E+01 0.60591424736E+01 0.49473751380E+01 0.40935842859E+01 0.34679035098E+01
 0.30414324204E+01 0.27932485625E+01 0.27117248690E+01 0.27932606808E+01 0.30414455980E+01
 0.34679038811E+01 0.40935657540E+01 0.49473442201E+01 0.60591146410E+01 0.74455235781E+01
 0.90902774468E+01 0.10927877980E+02 0.12852624150E+02 0.14698068392E+02 0.16246993819E+02
 0.17282916378E+02 0.17647509264E+02 0.17282920019E+02 0.15611089858E+02 0.14069169675E+02
 0.12311178568E+02 0.10519187744E+02 0.88296278314E+01 0.73232391046E+01 0.60591478835E+01
 0.50545781136E+01 0.42949950553E+01 0.37538255360E+01 0.34064635370E+01 0.32365568839E+01
 0.32365601583E+01 0.34064700316E+01 0.37538274273E+01 0.42949851471E+01 0.50545544566E+01
 0.60591146410E+01 0.73232037430E+01 0.88295967513E+01 0.10519162752E+02 0.12311157776E+02
 0.14069150483E+02 0.15611072022E+02 0.16755230211E+02 0.17363339106E+02 0.17363344092E+02
 0.16755243523E+02 0.15063859116E+02 0.13638500153E+02 0.12024099325E+02 0.10380275269E+02
 0.88296254218E+01 0.74455396395E+01 0.62899168852E+01 0.53822837763E+01 0.47099571363E+01
 0.42495676138E+01 0.39810516158E+01 0.38927449966E+01 0.39810502998E+01 0.42495664312E+01
 0.47099570792E+01 0.53822831072E+01 0.62899111224E+01 0.74455235781E+01 0.88295967513E+01
 0.10380236935E+02 0.12024058925E+02 0.13638465758E+02 0.15063835719E+02 0.16157265523E+02
 0.16832633601E+02 0.17059272077E+02 0.16832638192E+02 0.16157277750E+02 0.14739456754E+02
 0.13483630133E+02 0.12024079744E+02 0.10519169979E+02 0.90902653124E+01 0.78156575761E+01
 0.67623322031E+01 0.59486065766E+01 0.53621537108E+01 0.49831859113E+01 0.47970527438E+01
 0.47970485952E+01 0.49831782632E+01 0.53621530482E+01 0.59486203600E+01 0.67623578416E+01
 0.78156831795E+01 0.90902774468E+01 0.10519162752E+02 0.12024058925E+02 0.13483609245E+02
 0.14739447466E+02 0.15666763705E+02 0.16232174847E+02 0.16485036063E+02 0.16485031045E+02
 0.16232164720E+02 0.15666759365E+02 0.14739431273E+02 0.13638452878E+02 0.12311136990E+02
 0.10927841866E+02 0.96093991281E+01 0.84442174314E+01 0.74968730357E+01 0.67797227015E+01
 0.62809156149E+01 0.59865527375E+01 0.58890844839E+01 0.59865413588E+01 0.62809048655E+01
 0.67797277565E+01 0.74969013456E+01 0.84442631065E+01 0.96094469281E+01 0.10927877980E+02
 0.12311157776E+02 0.13638465758E+02 0.14739447466E+02 0.15475459730E+02 0.15830475687E+02
 0.15926970831E+02 0.15933242503E+02 0.15926951646E+02 0.15830447521E+02 0.15475434926E+02
 0.15063796278E+02 0.14069107628E+02 0.12852577482E+02 0.11588192498E+02 0.10387841843E+02
 0.93464368410E+01 0.85136456333E+01 0.78952243277E+01 0.74845922375E+01 0.72787770949E+01
 0.72787699105E+01 0.74845756749E+01 0.78952105578E+01 0.85136465556E+01 0.93464579326E+01
 0.10387879992E+02 0.11588239171E+02 0.12852624150E+02 0.14069150483E+02 0.15063835719E+02
 0.15666763705E+02 0.15830475687E+02 0.15696012850E+02 0.15525361963E+02 0.15525353282E+02
 0.15695989218E+02 0.15830442818E+02 0.15666726833E+02 0.15611021250E+02 0.14698021945E+02
 0.13604390138E+02 0.12480009900E+02 0.11425483940E+02 0.10524059370E+02 0.98058168914E+01
 0.92784501230E+01 0.89521537430E+01 0.88411779983E+01 0.89521447024E+01 0.92784324600E+01
 0.98057935758E+01 0.10524037164E+02 0.11425472463E+02 0.12480017736E+02 0.13604420273E+02
 0.14698068392E+02 0.15611072022E+02 0.16157265523E+02 0.16232174847E+02 0.15926970831E+02
 0.15525361963E+02 0.15345200082E+02 0.15525358273E+02 0.15926958257E+02 0.16232147776E+02
 0.16157223072E+02 0.16246949073E+02 0.15450355931E+02 0.14526304526E+02 0.13578102643E+02
 0.12694317805E+02 0.11926643651E+02 0.11304575898E+02 0.10858598887E+02 0.10622898428E+02
 0.10622901379E+02 0.10858601188E+02 0.11304563572E+02 0.11926608314E+02 0.12694266891E+02
 0.13578057299E+02 0.14526286868E+02 0.15450374852E+02 0.16246993819E+02 0.16755230211E+02
 0.16832633601E+02 0.16485036063E+02 0.15933242503E+02 0.15525353282E+02 0.15525358273E+02
 0.15933250111E+02 0.16485030640E+02 0.16832604523E+02 0.16755182914E+02 0.16877191191E+02
 0.16274169258E+02 0.15567338953E+02 0.14822118670E+02 0.14102405811E+02 0.13452368728E+02
 0.12914039628E+02 0.12547916573E+02 0.12416748307E+02 0.12547940102E+02 0.12914065405E+02
 0.13452370230E+02 0.14102371438E+02 0.14822061279E+02 0.15567288620E+02 0.16274152804E+02
 0.16877214807E+02 0.17282916378E+02 0.17363339106E+02 0.17059272077E+02 0.16485031045E+02
 0.15926951646E+02 0.15695989218E+02 0.15926958257E+02 0.16485030640E+02 0.17059250336E+02
 0.17363295448E+02 0.17282869294E+02 0.17460646738E+02 0.17113349705E+02 0.16643594177E+02
 0.16104997987E+02 0.15529504268E+02 0.14953501043E+02 0.14460292087E+02 0.14168663461E+02
 0.14168684128E+02 0.14460341760E+02 0.14953551390E+02 0.15529528737E+02 0.16104988869E+02
 0.16643565501E+02 0.17113327058E+02 0.17460650829E+02 0.17658294721E+02 0.17647509264E+02
 0.17363344092E+02 0.16832638192E+02 0.16232164720E+02 0.15830447521E+02 0.15830442818E+02
 0.16232147776E+02 0.16832604523E+02 0.17363295448E+02 0.17647458470E+02 0.17658260834E+02
 0.17962295098E+02 0.17881818377E+02 0.17658260834E+02 0.17282869294E+02 0.16755182914E+02
 0.16157223072E+02 0.15666726833E+02 0.15475434926E+02 0.15666759365E+02 0.16157277750E+02
 0.16755243523E+02 0.17282920019E+02 0.17658292974E+02 0.17881833706E+02 0.17962303468E+02
 0.17881833706E+02 0.17658292974E+02 0.17282920019E+02 0.16755243523E+02 0.16157277750E+02
 0.15666759365E+02 0.15475434926E+02 0.15666726833E+02 0.16157223072E+02 0.16755182914E+02
 0.17282869294E+02 0.17658260834E+02 0.17881818377E+02 0.18082802147E+02 0.18459528765E+02
 0.18438381955E+02 0.17957203953E+02 0.17167951522E+02 0.16430128496E+02 0.16128787709E+02
 0.16430094745E+02 0.17167912559E+02 0.17957194660E+02 0.18438416914E+02 0.18459590318E+02
 0.18082852438E+02 0.17460656348E+02 0.16708501887E+02 0.15893982226E+02 0.15097755735E+02
 0.14372842358E+02 0.13768372733E+02 0.13355172065E+02 0.13206721207E+02 0.13355131331E+02
 0.13768320967E+02 0.14372816338E+02 0.15097771781E+02 0.15894024297E+02 0.16708533093E+02
 0.17460646738E+02 0.18459528765E+02 0.18812645455E+02 0.18531214470E+02 0.17664712816E+02
 0.16584158461E+02 0.15839409238E+02 0.15839363873E+02 0.16584048982E+02 0.17664601630E+02
 0.18531157616E+02 0.18812657476E+02 0.18459577892E+02 0.17658295354E+02 0.16643581712E+02
 0.15567287242E+02 0.14526251888E+02 0.13604373618E+02 0.12852603548E+02 0.12311178568E+02
 0.12024099325E+02 0.12024079744E+02 0.12311136990E+02 0.12852577482E+02 0.13604390138E+02
 0.14526304526E+02 0.15567338953E+02 0.16643594177E+02 0.17658260834E+02 0.18438381955E+02
 0.18531214470E+02 0.17813911322E+02 0.16552641819E+02 0.15356542234E+02 0.14866390695E+02