 
             +---------------------------------------------------+
             |                                                   |
             |                   WANNIER90                       |
             |                                                   |
             +---------------------------------------------------+
             |                                                   |
             |        Welcome to the Maximally-Localized         |
             |        Generalized Wannier Functions code         |
             |            http://www.wannier.org                 |
             |                                                   |
             |  Wannier90 v2.0 Authors:                          |
             |    Arash A. Mostofi  (Imperial College London)    |
             |    Giovanni Pizzi    (EPFL)                       |
             |    Ivo Souza         (Universidad del Pais Vasco) |
             |    Jonathan R. Yates (University of Oxford)       |
             |                                                   |
             |  Wannier90 Contributors:                          |
             |    Young-Su Lee      (KIST, S. Korea)             |
             |    Matthew Shelley   (Imperial College London)    |
             |    Nicolas Poilvert  (Harvard)                    |
             |                                                   |
             |  Wannier77 Authors:                               |
             |    Nicola Marzari    (EPFL)                       |
             |    Ivo Souza         (Universidad del Pais Vasco) |
             |    David Vanderbilt  (Rutgers University)         |
             |                                                   |
             |  Please cite                                      |
             |                                                   |
             |  [ref] "Wannier90: A Tool for Obtaining Maximally |
             |         Localised Wannier Functions"              |
             |        A. A. Mostofi, J. R. Yates, Y.-S. Lee,     |
             |        I. Souza, D. Vanderbilt and N. Marzari     |
             |        Comput. Phys. Commun. 178, 685 (2008)      |
             |                                                   |
             |  in any publications arising from the use of      |
             |  this code. For the method please cite            |
             |                                                   |
             |  [ref] "Maximally Localized Generalised Wannier   |
             |         Functions for Composite Energy Bands"     |
             |         N. Marzari and D. Vanderbilt              |
             |         Phys. Rev. B 56 12847 (1997)              |
             |                                                   |
             |  [ref] "Maximally Localized Wannier Functions     |
             |         for Entangled Energy Bands"               |
             |         I. Souza, N. Marzari and D. Vanderbilt    |
             |         Phys. Rev. B 65 035109 (2001)             |
             |                                                   |
             |                                                   |
             | Copyright (c) 1996-2013                           |
             |        A. A. Mostofi, J. R. Yates, Y.-S. Lee,     |
             |        I. Souza, D. Vanderbilt and N. Marzari     |
             |                                                   |
             |        Release: 2.0    14th October 2013          |
             |                                                   |
             | This program is free software; you can            |
             | redistribute it and/or modify it under the terms  |
             | of the GNU General Public License as published by |
             | the Free Software Foundation; either version 2 of |
             | the License, or (at your option) any later version|
             |                                                   |
             | This program is distributed in the hope that it   |
             | will be useful, but WITHOUT ANY WARRANTY; without |
             | even the implied warranty of MERCHANTABILITY or   |
             | FITNESS FOR A PARTICULAR PURPOSE. See the GNU     |
             | General Public License for more details.          |
             |                                                   |
             | You should have received a copy of the GNU General|
             | Public License along with this program; if not,   |
             | write to the Free Software Foundation, Inc.,      |
             | 675 Mass Ave, Cambridge, MA 02139, USA.           |
             |                                                   |
             +---------------------------------------------------+
             |    Execution started on 29Oct2014 at 10:41:44     |
             +---------------------------------------------------+
 
 ******************************************************************************
 * -> Using CODATA 2006 constant values                                       *
 *    (http://physics.nist.gov/cuu/Constants/index.html)                      *
 * -> Using Bohr value from CODATA                                            *
 ******************************************************************************
 
 
                                    ------
                                    SYSTEM
                                    ------
 
                              Lattice Vectors (Ang)
                    a_1    -1.805023   0.000000   1.805023
                    a_2     0.000000   1.805023   1.805023
                    a_3    -1.805023   1.805023   0.000000
 
                   Unit Cell Volume:      11.76193  (Ang^3)
 
                        Reciprocal-Space Vectors (Ang^-1)
                    b_1    -1.740472  -1.740472   1.740472
                    b_2     1.740472   1.740472   1.740472
                    b_3    -1.740472   1.740472  -1.740472
  
 *----------------------------------------------------------------------------*
 |   Site       Fractional Coordinate          Cartesian Coordinate (Ang)     |
 +----------------------------------------------------------------------------+
 | Cu   1   0.00000   0.00000   0.00000   |    0.00000   0.00000   0.00000    |
 *----------------------------------------------------------------------------*
  
                                ------------
                                K-POINT GRID
                                ------------
  
             Grid size =  4 x  4 x  4      Total points =   64
  
  
 *---------------------------------- MAIN ------------------------------------*
 |  Number of Wannier Functions               :                 7             |
 |  Number of input Bloch states              :                12             |
 |  Output verbosity (1=low, 5=high)          :                 1             |
 |  Timing Level (1=low, 5=high)              :                 1             |
 |  Optimisation (0=memory, 3=speed)          :                 3             |
 |  Length Unit                               :               Ang             |
 |  Post-processing setup (write *.nnkp)      :                 F             |
 |  Using Gamma-only branch of algorithms     :                 F             |
 *----------------------------------------------------------------------------*
 *------------------------------- WANNIERISE ---------------------------------*
 |  Total number of iterations                :               200             |
 |  Number of CG steps before reset           :                 5             |
 |  Trial step length for line search         :             2.000             |
 |  Convergence tolerence                     :         0.100E-09             |
 |  Convergence window                        :                -1             |
 |  Iterations between writing output         :                 1             |
 |  Iterations between backing up to disk     :               100             |
 |  Write r^2_nm to file                      :                 F             |
 |  Write xyz WF centres to file              :                 F             |
 |  Write on-site energies <0n|H|0n> to file  :                 F             |
 |  Use guiding centre to control phases      :                 F             |
 |  Use phases for initial projections        :                 F             |
 *----------------------------------------------------------------------------*
 *------------------------------- DISENTANGLE --------------------------------*
 |  Using band disentanglement                :                 T             |
 |  Total number of iterations                :                60             |
 |  Mixing ratio                              :             1.000             |
 |  Convergence tolerence                     :         1.000E-10             |
 |  Convergence window                        :                 3             |
 *----------------------------------------------------------------------------*
 Time to read parameters        0.012 (sec)

 *---------------------------------- K-MESH ----------------------------------*
 +----------------------------------------------------------------------------+
 |                    Distance to Nearest-Neighbour Shells                    |
 |                    ------------------------------------                    |
 |          Shell             Distance (Ang^-1)          Multiplicity         |
 |          -----             -----------------          ------------         |
 |             1                   0.753646                      8            |
 |             2                   0.870236                      6            |
 |             3                   1.230700                     12            |
 |             4                   1.443123                     24            |
 |             5                   1.507293                      8            |
 |             6                   1.740472                      6            |
 |             7                   1.896635                     24            |
 |             8                   1.945907                     24            |
 |             9                   2.131634                     24            |
 |            10                   2.260939                     32            |
 |            11                   2.461399                     12            |
 |            12                   2.574193                     48            |
 +----------------------------------------------------------------------------+
 | The b-vectors are chosen automatically                                     |
 | The following shells are used:   1                                         |
 +----------------------------------------------------------------------------+
 |                        Shell   # Nearest-Neighbours                        |
 |                        -----   --------------------                        |
 |                          1               8                                 |
 +----------------------------------------------------------------------------+
 | Completeness relation is fully satisfied [Eq. (B1), PRB 56, 12847 (1997)]  |
 +----------------------------------------------------------------------------+
 |                  b_k Vectors (Ang^-1) and Weights (Ang^2)                  |
 |                  ----------------------------------------                  |
 |            No.         b_k(x)      b_k(y)      b_k(z)        w_b           |
 |            ---        --------------------------------     --------        |
 |             1         0.435118    0.435118    0.435118     0.660231        |
 |             2        -0.435118   -0.435118    0.435118     0.660231        |
 |             3        -0.435118    0.435118   -0.435118     0.660231        |
 |             4        -0.435118    0.435118    0.435118     0.660231        |
 |             5         0.435118   -0.435118    0.435118     0.660231        |
 |             6        -0.435118   -0.435118   -0.435118     0.660231        |
 |             7         0.435118    0.435118   -0.435118     0.660231        |
 |             8         0.435118   -0.435118   -0.435118     0.660231        |
 +----------------------------------------------------------------------------+
 |                           b_k Directions (Ang^-1)                          |
 |                           -----------------------                          |
 |            No.           x           y           z                         |
 |            ---        --------------------------------                     |
 |             1         0.435118    0.435118    0.435118                     |
 |             2        -0.435118   -0.435118    0.435118                     |
 |             3        -0.435118    0.435118   -0.435118                     |
 |             4        -0.435118    0.435118    0.435118                     |
 +----------------------------------------------------------------------------+
  
 *============================================================================*
 |                              MEMORY ESTIMATE                               |
 |         Maximum RAM allocated during each phase of the calculation         |
 *============================================================================*
 |                        Disentanglement            1.76 Mb                  |
 |                            Wannierise:            1.21 Mb                  |
 *----------------------------------------------------------------------------*
  
 Starting a new Wannier90 calculation ...

 Time to get kmesh              0.028 (sec)

 Reading overlaps from copper.mmn    :        73728

 Reading projections from copper.amn :         5376

 Time to read overlaps          0.065 (sec)

 *------------------------------- DISENTANGLE --------------------------------*
 +----------------------------------------------------------------------------+
 |                              Energy  Windows                               |
 |                              ---------------                               |
 |                   Outer:    2.81741  to   38.00000  (eV)                   |
 |                   Inner:    2.81741  to   13.00000  (eV)                   |
 +----------------------------------------------------------------------------+
   Number of target bands to extract:    7

                   Unitarised projection of Wannier functions                  
                   ------------------------------------------                  
   A_mn = <psi_m|g_n> --> S = A.A^+ --> U = S^-1/2.A
   In dis_project... done
   Using an inner window (linner = T)
   In dis_proj_froz... done

                   Extraction of optimally-connected subspace                  
                   ------------------------------------------                  
 +---------------------------------------------------------------------+<-- DIS
 |  Iter     Omega_I(i-1)      Omega_I(i)      Delta (frac.)    Time   |<-- DIS
 +---------------------------------------------------------------------+<-- DIS
       1       3.91743302       3.66269149       6.955E-02      0.11    <-- DIS
       2       3.66269149       3.66269149       1.954E-14      0.12    <-- DIS
       3       3.66269149       3.66269149      -1.443E-15      0.12    <-- DIS
       4       3.66269149       3.66269149      -1.887E-15      0.13    <-- DIS

             <<<      Delta < 1.000E-10  over  3 iterations     >>>
             <<< Disentanglement convergence criteria satisfied >>>

        Final Omega_I     3.66269149 (Ang^2)

 +----------------------------------------------------------------------------+

 Time to disentangle bands      0.029 (sec)

 Writing checkpoint file copper.chk... done

 
 *------------------------------- WANNIERISE ---------------------------------*
 +--------------------------------------------------------------------+<-- CONV
 | Iter  Delta Spread     RMS Gradient      Spread (Ang^2)      Time  |<-- CONV
 +--------------------------------------------------------------------+<-- CONV
 
 ------------------------------------------------------------------------------
 Initial State
  WF centre and spread    1  (  0.000000,  0.000000, -0.000000 )     0.41665762
  WF centre and spread    2  ( -0.000000,  0.000000,  0.000000 )     0.35080350
  WF centre and spread    3  ( -0.000000,  0.000000, -0.000000 )     0.35080360
  WF centre and spread    4  ( -0.000000, -0.000000,  0.000000 )     0.41667716
  WF centre and spread    5  ( -0.000000,  0.000000,  0.000000 )     0.35079728
  WF centre and spread    6  ( -0.902512,  0.902512,  0.902512 )     1.30069382
  WF centre and spread    7  (  0.902512, -0.902512, -0.902512 )     1.30069385
  Sum of centres and spreads (  0.000000, -0.000000, -0.000000 )     4.48712684
 
      0     0.449E+01     0.0000000000        4.4871268398       0.14  <-- CONV
        O_D=      0.0185815 O_OD=      0.8058538 O_TOT=      4.4871268 <-- SPRD
 ------------------------------------------------------------------------------
 Cycle:      1
  WF centre and spread    1  (  0.000000,  0.000000, -0.000000 )     0.41156074
  WF centre and spread    2  ( -0.000000, -0.000000,  0.000000 )     0.31198967
  WF centre and spread    3  ( -0.000000,  0.000000, -0.000000 )     0.31198981
  WF centre and spread    4  ( -0.000000, -0.000000,  0.000000 )     0.41157354
  WF centre and spread    5  ( -0.000000,  0.000000,  0.000000 )     0.31198849
  WF centre and spread    6  ( -0.902512,  0.902512,  0.902512 )     1.22934751
  WF centre and spread    7  (  0.902512, -0.902512, -0.902512 )     1.22934753
  Sum of centres and spreads (  0.000000, -0.000000, -0.000000 )     4.21779728
 
      1    -0.269E+00     0.3014213918        4.2177972798       0.14  <-- CONV
        O_D=      0.0157298 O_OD=      0.5393760 O_TOT=      4.2177973 <-- SPRD
 Delta: O_D= -0.2851732E-02 O_OD= -0.2664778E+00 O_TOT= -0.2693296E+00 <-- DLTA
 ------------------------------------------------------------------------------
 Cycle:      2
  WF centre and spread    1  (  0.000000,  0.000000, -0.000000 )     0.41450173
  WF centre and spread    2  ( -0.000000, -0.000000,  0.000000 )     0.30370737
  WF centre and spread    3  ( -0.000000, -0.000000, -0.000000 )     0.30370748
  WF centre and spread    4  ( -0.000000, -0.000000,  0.000000 )     0.41452465
  WF centre and spread    5  (  0.000000,  0.000000,  0.000000 )     0.30370684
  WF centre and spread    6  ( -0.902512,  0.902512,  0.902512 )     1.17430143
  WF centre and spread    7  (  0.902512, -0.902512, -0.902512 )     1.17430145
  Sum of centres and spreads (  0.000000, -0.000000, -0.000000 )     4.08875095
 
      2    -0.129E+00     0.2295668386        4.0887509490       0.15  <-- CONV
        O_D=      0.0046250 O_OD=      0.4214345 O_TOT=      4.0887509 <-- SPRD
 Delta: O_D= -0.1110480E-01 O_OD= -0.1179415E+00 O_TOT= -0.1290463E+00 <-- DLTA
 ------------------------------------------------------------------------------
 Cycle:      3
  WF centre and spread    1  ( -0.000000,  0.000000, -0.000000 )     0.41015337
  WF centre and spread    2  ( -0.000000, -0.000000, -0.000000 )     0.30666920
  WF centre and spread    3  ( -0.000000, -0.000000, -0.000000 )     0.30666930
  WF centre and spread    4  ( -0.000000, -0.000000,  0.000000 )     0.41015719
  WF centre and spread    5  (  0.000000,  0.000000,  0.000000 )     0.30666795
  WF centre and spread    6  ( -0.902512,  0.902512,  0.902512 )     1.14929356
  WF centre and spread    7  (  0.902512, -0.902512, -0.902512 )     1.14929359
  Sum of centres and spreads (  0.000000, -0.000000, -0.000000 )     4.03890417
 
      3    -0.498E-01     0.1498511732        4.0389041719       0.16  <-- CONV
        O_D=      0.0041828 O_OD=      0.3720298 O_TOT=      4.0389042 <-- SPRD
 Delta: O_D= -0.4421422E-03 O_OD= -0.4940463E-01 O_TOT= -0.4984678E-01 <-- DLTA
 ------------------------------------------------------------------------------
 Cycle:      4
  WF centre and spread    1  ( -0.000000,  0.000000, -0.000000 )     0.40847488
  WF centre and spread    2  ( -0.000000, -0.000000, -0.000000 )     0.30804301
  WF centre and spread    3  ( -0.000000, -0.000000, -0.000000 )     0.30804311
  WF centre and spread    4  ( -0.000000, -0.000000,  0.000000 )     0.40847261
  WF centre and spread    5  (  0.000000,  0.000000, -0.000000 )     0.30804171
  WF centre and spread    6  ( -0.902512,  0.902512,  0.902512 )     1.14360706
  WF centre and spread    7  (  0.902512, -0.902512, -0.902512 )     1.14360708
  Sum of centres and spreads (  0.000000, -0.000000, -0.000000 )     4.02828946
 
      4    -0.106E-01     0.0753413397        4.0282894649       0.16  <-- CONV
        O_D=      0.0019231 O_OD=      0.3636749 O_TOT=      4.0282895 <-- SPRD
 Delta: O_D= -0.2259731E-02 O_OD= -0.8354976E-02 O_TOT= -0.1061471E-01 <-- DLTA
 ------------------------------------------------------------------------------
 Cycle:      5
  WF centre and spread    1  ( -0.000000,  0.000000, -0.000000 )     0.40839164
  WF centre and spread    2  ( -0.000000, -0.000000, -0.000000 )     0.30804496
  WF centre and spread    3  ( -0.000000, -0.000000, -0.000000 )     0.30804506
  WF centre and spread    4  ( -0.000000, -0.000000,  0.000000 )     0.40839053
  WF centre and spread    5  (  0.000000,  0.000000, -0.000000 )     0.30804358
  WF centre and spread    6  ( -0.902512,  0.902512,  0.902512 )     1.14356817
  WF centre and spread    7  (  0.902512, -0.902512, -0.902512 )     1.14356820
  Sum of centres and spreads (  0.000000, -0.000000, -0.000000 )     4.02805214
 
      5    -0.237E-03     0.0135483250        4.0280521412       0.17  <-- CONV
        O_D=      0.0018826 O_OD=      0.3634781 O_TOT=      4.0280521 <-- SPRD
 Delta: O_D= -0.4050849E-04 O_OD= -0.1968151E-03 O_TOT= -0.2373236E-03 <-- DLTA
 ------------------------------------------------------------------------------
 Cycle:      6
  WF centre and spread    1  ( -0.000000,  0.000000, -0.000000 )     0.40838788
  WF centre and spread    2  ( -0.000000, -0.000000, -0.000000 )     0.30800943
  WF centre and spread    3  ( -0.000000, -0.000000, -0.000000 )     0.30800953
  WF centre and spread    4  ( -0.000000, -0.000000,  0.000000 )     0.40838758
  WF centre and spread    5  (  0.000000,  0.000000, -0.000000 )     0.30800813
  WF centre and spread    6  ( -0.902512,  0.902512,  0.902512 )     1.14362026
  WF centre and spread    7  (  0.902512, -0.902512, -0.902512 )     1.14362029
  Sum of centres and spreads (  0.000000, -0.000000, -0.000000 )     4.02804311
 
      6    -0.903E-05     0.0024348551        4.0280431120       0.18  <-- CONV
        O_D=      0.0018853 O_OD=      0.3634663 O_TOT=      4.0280431 <-- SPRD
 Delta: O_D=  0.2732828E-05 O_OD= -0.1176210E-04 O_TOT= -0.9029271E-05 <-- DLTA
 ------------------------------------------------------------------------------
 Cycle:      7
  WF centre and spread    1  ( -0.000000,  0.000000, -0.000000 )     0.40838972
  WF centre and spread    2  ( -0.000000, -0.000000, -0.000000 )     0.30795724
  WF centre and spread    3  ( -0.000000, -0.000000, -0.000000 )     0.30795734
  WF centre and spread    4  ( -0.000000, -0.000000,  0.000000 )     0.40838997
  WF centre and spread    5  (  0.000000,  0.000000, -0.000000 )     0.30795609
  WF centre and spread    6  ( -0.902512,  0.902512,  0.902512 )     1.14369551
  WF centre and spread    7  (  0.902512, -0.902512, -0.902512 )     1.14369554
  Sum of centres and spreads (  0.000000, -0.000000, -0.000000 )     4.02804141
 
      7    -0.170E-05     0.0008131107        4.0280414085       0.18  <-- CONV
        O_D=      0.0018898 O_OD=      0.3634601 O_TOT=      4.0280414 <-- SPRD
 Delta: O_D=  0.4466166E-05 O_OD= -0.6169603E-05 O_TOT= -0.1703437E-05 <-- DLTA
 ------------------------------------------------------------------------------
 Cycle:      8
  WF centre and spread    1  ( -0.000000,  0.000000, -0.000000 )     0.40839032
  WF centre and spread    2  ( -0.000000, -0.000000, -0.000000 )     0.30789028
  WF centre and spread    3  ( -0.000000, -0.000000,  0.000000 )     0.30789038
  WF centre and spread    4  ( -0.000000, -0.000000,  0.000000 )     0.40839105
  WF centre and spread    5  (  0.000000, -0.000000, -0.000000 )     0.30788932
  WF centre and spread    6  ( -0.902512,  0.902512,  0.902512 )     1.14379452
  WF centre and spread    7  (  0.902512, -0.902512, -0.902512 )     1.14379455
  Sum of centres and spreads (  0.000000, -0.000000, -0.000000 )     4.02804040
 
      8    -0.100E-05     0.0005857025        4.0280404041       0.19  <-- CONV
        O_D=      0.0018938 O_OD=      0.3634551 O_TOT=      4.0280404 <-- SPRD
 Delta: O_D=  0.4038482E-05 O_OD= -0.5042904E-05 O_TOT= -0.1004422E-05 <-- DLTA
 ------------------------------------------------------------------------------
 Cycle:      9
  WF centre and spread    1  ( -0.000000,  0.000000, -0.000000 )     0.40838892
  WF centre and spread    2  ( -0.000000, -0.000000, -0.000000 )     0.30786129
  WF centre and spread    3  ( -0.000000, -0.000000,  0.000000 )     0.30786139
  WF centre and spread    4  ( -0.000000, -0.000000,  0.000000 )     0.40838953
  WF centre and spread    5  (  0.000000, -0.000000, -0.000000 )     0.30786043
  WF centre and spread    6  ( -0.902512,  0.902512,  0.902512 )     1.14383927
  WF centre and spread    7  (  0.902512, -0.902512, -0.902512 )     1.14383930
  Sum of centres and spreads (  0.000000, -0.000000, -0.000000 )     4.02804013
 
      9    -0.273E-06     0.0003443952        4.0280401311       0.19  <-- CONV
        O_D=      0.0018944 O_OD=      0.3634543 O_TOT=      4.0280401 <-- SPRD
 Delta: O_D=  0.5257674E-06 O_OD= -0.7987946E-06 O_TOT= -0.2730272E-06 <-- DLTA
 ------------------------------------------------------------------------------
 Cycle:     10
  WF centre and spread    1  ( -0.000000,  0.000000, -0.000000 )     0.40838871
  WF centre and spread    2  ( -0.000000, -0.000000, -0.000000 )     0.30785082
  WF centre and spread    3  ( -0.000000, -0.000000,  0.000000 )     0.30785092
  WF centre and spread    4  ( -0.000000, -0.000000,  0.000000 )     0.40838918
  WF centre and spread    5  (  0.000000, -0.000000, -0.000000 )     0.30784999
  WF centre and spread    6  ( -0.902512,  0.902512,  0.902512 )     1.14385521
  WF centre and spread    7  (  0.902512, -0.902512, -0.902512 )     1.14385524
  Sum of centres and spreads (  0.000000, -0.000000, -0.000000 )     4.02804006
 
     10    -0.680E-07     0.0001842816        4.0280400631       0.20  <-- CONV
        O_D=      0.0018943 O_OD=      0.3634542 O_TOT=      4.0280401 <-- SPRD
 Delta: O_D= -0.1238327E-07 O_OD= -0.5562294E-07 O_TOT= -0.6800621E-07 <-- DLTA
 ------------------------------------------------------------------------------
 Cycle:     11
  WF centre and spread    1  ( -0.000000,  0.000000, -0.000000 )     0.40838907
  WF centre and spread    2  ( -0.000000, -0.000000, -0.000000 )     0.30784989
  WF centre and spread    3  ( -0.000000, -0.000000,  0.000000 )     0.30784999
  WF centre and spread    4  ( -0.000000, -0.000000,  0.000000 )     0.40838950
  WF centre and spread    5  (  0.000000, -0.000000, -0.000000 )     0.30784907
  WF centre and spread    6  ( -0.902512,  0.902512,  0.902512 )     1.14385625
  WF centre and spread    7  (  0.902512, -0.902512, -0.902512 )     1.14385628
  Sum of centres and spreads (  0.000000, -0.000000, -0.000000 )     4.02804006
 
     11    -0.409E-08     0.0000493994        4.0280400590       0.21  <-- CONV
        O_D=      0.0018944 O_OD=      0.3634542 O_TOT=      4.0280401 <-- SPRD
 Delta: O_D=  0.6751513E-07 O_OD= -0.7160817E-07 O_TOT= -0.4093044E-08 <-- DLTA
 ------------------------------------------------------------------------------
 Cycle:     12
  WF centre and spread    1  ( -0.000000,  0.000000, -0.000000 )     0.40838923
  WF centre and spread    2  ( -0.000000, -0.000000, -0.000000 )     0.30784973
  WF centre and spread    3  ( -0.000000, -0.000000,  0.000000 )     0.30784983
  WF centre and spread    4  ( -0.000000, -0.000000,  0.000000 )     0.40838964
  WF centre and spread    5  (  0.000000, -0.000000, -0.000000 )     0.30784890
  WF centre and spread    6  ( -0.902512,  0.902512,  0.902512 )     1.14385635
  WF centre and spread    7  (  0.902512, -0.902512, -0.902512 )     1.14385638
  Sum of centres and spreads (  0.000000, -0.000000, -0.000000 )     4.02804006
 
     12    -0.503E-09     0.0000193007        4.0280400585       0.21  <-- CONV
        O_D=      0.0018945 O_OD=      0.3634541 O_TOT=      4.0280401 <-- SPRD
 Delta: O_D=  0.4285802E-07 O_OD= -0.4336064E-07 O_TOT= -0.5026211E-09 <-- DLTA
 ------------------------------------------------------------------------------
 Cycle:     13
  WF centre and spread    1  ( -0.000000,  0.000000, -0.000000 )     0.40838926
  WF centre and spread    2  ( -0.000000, -0.000000, -0.000000 )     0.30784972
  WF centre and spread    3  ( -0.000000, -0.000000,  0.000000 )     0.30784982
  WF centre and spread    4  ( -0.000000, -0.000000,  0.000000 )     0.40838967
  WF centre and spread    5  (  0.000000, -0.000000, -0.000000 )     0.30784889
  WF centre and spread    6  ( -0.902512,  0.902512,  0.902512 )     1.14385633
  WF centre and spread    7  (  0.902512, -0.902512, -0.902512 )     1.14385636
  Sum of centres and spreads (  0.000000, -0.000000, -0.000000 )     4.02804006
 
     13    -0.740E-10     0.0000077735        4.0280400584       0.22  <-- CONV
        O_D=      0.0018945 O_OD=      0.3634541 O_TOT=      4.0280401 <-- SPRD
 Delta: O_D=  0.1123945E-07 O_OD= -0.1131343E-07 O_TOT= -0.7398082E-10 <-- DLTA
 ------------------------------------------------------------------------------
 Cycle:     14
  WF centre and spread    1  ( -0.000000,  0.000000, -0.000000 )     0.40838930
  WF centre and spread    2  ( -0.000000, -0.000000, -0.000000 )     0.30784971
  WF centre and spread    3  ( -0.000000, -0.000000,  0.000000 )     0.30784981
  WF centre and spread    4  ( -0.000000, -0.000000,  0.000000 )     0.40838971
  WF centre and spread    5  (  0.000000, -0.000000, -0.000000 )     0.30784888
  WF centre and spread    6  ( -0.902512,  0.902512,  0.902512 )     1.14385631
  WF centre and spread    7  (  0.902512, -0.902512, -0.902512 )     1.14385634
  Sum of centres and spreads (  0.000000, -0.000000, -0.000000 )     4.02804006
 
     14    -0.208E-10     0.0000036547        4.0280400584       0.23  <-- CONV
        O_D=      0.0018945 O_OD=      0.3634541 O_TOT=      4.0280401 <-- SPRD
 Delta: O_D=  0.9879670E-08 O_OD= -0.9900455E-08 O_TOT= -0.2078515E-10 <-- DLTA
 ------------------------------------------------------------------------------
 Cycle:     15
  WF centre and spread    1  ( -0.000000,  0.000000, -0.000000 )     0.40838931
  WF centre and spread    2  ( -0.000000, -0.000000, -0.000000 )     0.30784971
  WF centre and spread    3  ( -0.000000, -0.000000,  0.000000 )     0.30784981
  WF centre and spread    4  ( -0.000000, -0.000000,  0.000000 )     0.40838972
  WF centre and spread    5  (  0.000000, -0.000000, -0.000000 )     0.30784888
  WF centre and spread    6  ( -0.902512,  0.902512,  0.902512 )     1.14385630
  WF centre and spread    7  (  0.902512, -0.902512, -0.902512 )     1.14385633
  Sum of centres and spreads (  0.000000, -0.000000, -0.000000 )     4.02804006
 
     15    -0.285E-11     0.0000012501        4.0280400584       0.23  <-- CONV
        O_D=      0.0018945 O_OD=      0.3634541 O_TOT=      4.0280401 <-- SPRD
 Delta: O_D=  0.2991165E-08 O_OD= -0.2994011E-08 O_TOT= -0.2845724E-11 <-- DLTA
 ------------------------------------------------------------------------------
 Cycle:     16
  WF centre and spread    1  ( -0.000000,  0.000000, -0.000000 )     0.40838931
  WF centre and spread    2  ( -0.000000, -0.000000, -0.000000 )     0.30784971
  WF centre and spread    3  ( -0.000000, -0.000000,  0.000000 )     0.30784981
  WF centre and spread    4  ( -0.000000, -0.000000,  0.000000 )     0.40838972
  WF centre and spread    5  (  0.000000, -0.000000, -0.000000 )     0.30784888
  WF centre and spread    6  ( -0.902512,  0.902512,  0.902512 )     1.14385630
  WF centre and spread    7  (  0.902512, -0.902512, -0.902512 )     1.14385633
  Sum of centres and spreads (  0.000000, -0.000000, -0.000000 )     4.02804006
 
     16    -0.426E-13     0.0000005703        4.0280400584       0.24  <-- CONV
        O_D=      0.0018945 O_OD=      0.3634541 O_TOT=      4.0280401 <-- SPRD
 Delta: O_D=  0.5072850E-10 O_OD= -0.5077094E-10 O_TOT= -0.4263256E-13 <-- DLTA
 ------------------------------------------------------------------------------
 Cycle:     17
  WF centre and spread    1  ( -0.000000,  0.000000, -0.000000 )     0.40838932
  WF centre and spread    2  ( -0.000000, -0.000000, -0.000000 )     0.30784970
  WF centre and spread    3  ( -0.000000, -0.000000,  0.000000 )     0.30784981
  WF centre and spread    4  ( -0.000000, -0.000000,  0.000000 )     0.40838972
  WF centre and spread    5  (  0.000000, -0.000000, -0.000000 )     0.30784888
  WF centre and spread    6  ( -0.902512,  0.902512,  0.902512 )     1.14385630
  WF centre and spread    7  (  0.902512, -0.902512, -0.902512 )     1.14385633
  Sum of centres and spreads (  0.000000, -0.000000, -0.000000 )     4.02804006
 
     17    -0.361E-12     0.0000005504        4.0280400584       0.24  <-- CONV
        O_D=      0.0018945 O_OD=      0.3634541 O_TOT=      4.0280401 <-- SPRD
 Delta: O_D=  0.4798812E-09 O_OD= -0.4802413E-09 O_TOT= -0.3606004E-12 <-- DLTA
 ------------------------------------------------------------------------------
 Cycle:     18
  WF centre and spread    1  ( -0.000000,  0.000000, -0.000000 )     0.40838932
  WF centre and spread    2  ( -0.000000, -0.000000, -0.000000 )     0.30784970
  WF centre and spread    3  ( -0.000000, -0.000000,  0.000000 )     0.30784980
  WF centre and spread    4  ( -0.000000, -0.000000,  0.000000 )     0.40838972
  WF centre and spread    5  (  0.000000, -0.000000, -0.000000 )     0.30784887
  WF centre and spread    6  ( -0.902512,  0.902512,  0.902512 )     1.14385630
  WF centre and spread    7  (  0.902512, -0.902512, -0.902512 )     1.14385633
  Sum of centres and spreads (  0.000000, -0.000000, -0.000000 )     4.02804006
 
     18    -0.817E-13     0.0000003432        4.0280400584       0.25  <-- CONV
        O_D=      0.0018945 O_OD=      0.3634541 O_TOT=      4.0280401 <-- SPRD
 Delta: O_D=  0.1573060E-09 O_OD= -0.1573880E-09 O_TOT= -0.8171241E-13 <-- DLTA
 ------------------------------------------------------------------------------
 Cycle:     19
  WF centre and spread    1  ( -0.000000,  0.000000, -0.000000 )     0.40838932
  WF centre and spread    2  ( -0.000000, -0.000000, -0.000000 )     0.30784970
  WF centre and spread    3  ( -0.000000, -0.000000,  0.000000 )     0.30784980
  WF centre and spread    4  ( -0.000000, -0.000000,  0.000000 )     0.40838972
  WF centre and spread    5  (  0.000000, -0.000000, -0.000000 )     0.30784887
  WF centre and spread    6  ( -0.902512,  0.902512,  0.902512 )     1.14385630
  WF centre and spread    7  (  0.902512, -0.902512, -0.902512 )     1.14385633
  Sum of centres and spreads (  0.000000, -0.000000, -0.000000 )     4.02804006
 
     19    -0.711E-14     0.0000002875        4.0280400584       0.25  <-- CONV
        O_D=      0.0018945 O_OD=      0.3634541 O_TOT=      4.0280401 <-- SPRD
 Delta: O_D=  0.1512182E-10 O_OD= -0.1512945E-10 O_TOT= -0.7105427E-14 <-- DLTA
 ------------------------------------------------------------------------------
 Cycle:     20
  WF centre and spread    1  ( -0.000000,  0.000000, -0.000000 )     0.40838932
  WF centre and spread    2  ( -0.000000, -0.000000, -0.000000 )     0.30784970
  WF centre and spread    3  ( -0.000000, -0.000000,  0.000000 )     0.30784980
  WF centre and spread    4  ( -0.000000, -0.000000,  0.000000 )     0.40838972
  WF centre and spread    5  (  0.000000, -0.000000, -0.000000 )     0.30784887
  WF centre and spread    6  ( -0.902512,  0.902512,  0.902512 )     1.14385630
  WF centre and spread    7  (  0.902512, -0.902512, -0.902512 )     1.14385633
  Sum of centres and spreads (  0.000000, -0.000000, -0.000000 )     4.02804006
 
     20    -0.151E-13     0.0000002824        4.0280400584       0.26  <-- CONV
        O_D=      0.0018945 O_OD=      0.3634541 O_TOT=      4.0280401 <-- SPRD
 Delta: O_D=  0.2949715E-10 O_OD= -0.2951145E-10 O_TOT= -0.1509903E-13 <-- DLTA
 ------------------------------------------------------------------------------
 Cycle:     21
  WF centre and spread    1  ( -0.000000,  0.000000, -0.000000 )     0.40838932
  WF centre and spread    2  ( -0.000000, -0.000000, -0.000000 )     0.30784970
  WF centre and spread    3  ( -0.000000, -0.000000,  0.000000 )     0.30784980
  WF centre and spread    4  ( -0.000000, -0.000000,  0.000000 )     0.40838972
  WF centre and spread    5  (  0.000000, -0.000000, -0.000000 )     0.30784887
  WF centre and spread    6  ( -0.902512,  0.902512,  0.902512 )     1.14385630
  WF centre and spread    7  (  0.902512, -0.902512, -0.902512 )     1.14385633
  Sum of centres and spreads (  0.000000, -0.000000, -0.000000 )     4.02804006
 
     21    -0.417E-13     0.0000002727        4.0280400584       0.26  <-- CONV
        O_D=      0.0018945 O_OD=      0.3634541 O_TOT=      4.0280401 <-- SPRD
 Delta: O_D=  0.9498236E-10 O_OD= -0.9502432E-10 O_TOT= -0.4174439E-13 <-- DLTA
 ------------------------------------------------------------------------------
 Cycle:     22
  WF centre and spread    1  ( -0.000000,  0.000000, -0.000000 )     0.40838932
  WF centre and spread    2  ( -0.000000, -0.000000, -0.000000 )     0.30784970
  WF centre and spread    3  ( -0.000000, -0.000000,  0.000000 )     0.30784980
  WF centre and spread    4  ( -0.000000, -0.000000,  0.000000 )     0.40838972
  WF centre and spread    5  (  0.000000, -0.000000, -0.000000 )     0.30784887
  WF centre and spread    6  ( -0.902512,  0.902512,  0.902512 )     1.14385630
  WF centre and spread    7  (  0.902512, -0.902512, -0.902512 )     1.14385633
  Sum of centres and spreads (  0.000000, -0.000000, -0.000000 )     4.02804006
 
     22    -0.195E-13     0.0000002421        4.0280400584       0.27  <-- CONV
        O_D=      0.0018945 O_OD=      0.3634541 O_TOT=      4.0280401 <-- SPRD
 Delta: O_D=  0.4612545E-10 O_OD= -0.4614520E-10 O_TOT= -0.1953993E-13 <-- DLTA
 ------------------------------------------------------------------------------
 Cycle:     23
  WF centre and spread    1  ( -0.000000,  0.000000, -0.000000 )     0.40838932
  WF centre and spread    2  ( -0.000000, -0.000000, -0.000000 )     0.30784970
  WF centre and spread    3  ( -0.000000, -0.000000,  0.000000 )     0.30784980
  WF centre and spread    4  ( -0.000000, -0.000000,  0.000000 )     0.40838972
  WF centre and spread    5  (  0.000000, -0.000000, -0.000000 )     0.30784887
  WF centre and spread    6  ( -0.902512,  0.902512,  0.902512 )     1.14385630
  WF centre and spread    7  (  0.902512, -0.902512, -0.902512 )     1.14385633
  Sum of centres and spreads (  0.000000, -0.000000, -0.000000 )     4.02804006
 
     23    -0.213E-13     0.0000002277        4.0280400584       0.27  <-- CONV
        O_D=      0.0018945 O_OD=      0.3634541 O_TOT=      4.0280401 <-- SPRD
 Delta: O_D=  0.5317683E-10 O_OD= -0.5319795E-10 O_TOT= -0.2131628E-13 <-- DLTA
 ------------------------------------------------------------------------------
 Cycle:     24
  WF centre and spread    1  ( -0.000000,  0.000000, -0.000000 )     0.40838932
  WF centre and spread    2  ( -0.000000, -0.000000, -0.000000 )     0.30784970
  WF centre and spread    3  ( -0.000000, -0.000000,  0.000000 )     0.30784980
  WF centre and spread    4  ( -0.000000, -0.000000,  0.000000 )     0.40838972
  WF centre and spread    5  (  0.000000, -0.000000, -0.000000 )     0.30784887
  WF centre and spread    6  ( -0.902512,  0.902512,  0.902512 )     1.14385631
  WF centre and spread    7  (  0.902512, -0.902512, -0.902512 )     1.14385633
  Sum of centres and spreads (  0.000000, -0.000000, -0.000000 )     4.02804006
 
     24    -0.266E-13     0.0000002115        4.0280400584       0.28  <-- CONV
        O_D=      0.0018945 O_OD=      0.3634541 O_TOT=      4.0280401 <-- SPRD
 Delta: O_D=  0.8607054E-10 O_OD= -0.8609680E-10 O_TOT= -0.2664535E-13 <-- DLTA
 ------------------------------------------------------------------------------
 Cycle:     25
  WF centre and spread    1  ( -0.000000,  0.000000, -0.000000 )     0.40838932
  WF centre and spread    2  ( -0.000000, -0.000000, -0.000000 )     0.30784970
  WF centre and spread    3  ( -0.000000, -0.000000,  0.000000 )     0.30784980
  WF centre and spread    4  ( -0.000000, -0.000000,  0.000000 )     0.40838972
  WF centre and spread    5  (  0.000000, -0.000000, -0.000000 )     0.30784887
  WF centre and spread    6  ( -0.902512,  0.902512,  0.902512 )     1.14385631
  WF centre and spread    7  (  0.902512, -0.902512, -0.902512 )     1.14385633
  Sum of centres and spreads (  0.000000, -0.000000, -0.000000 )     4.02804006
 
     25    -0.622E-14     0.0000001861        4.0280400584       0.28  <-- CONV
        O_D=      0.0018945 O_OD=      0.3634541 O_TOT=      4.0280401 <-- SPRD
 Delta: O_D=  0.1035935E-10 O_OD= -0.1036632E-10 O_TOT= -0.6217249E-14 <-- DLTA
 ------------------------------------------------------------------------------
 Cycle:     26
  WF centre and spread    1  ( -0.000000,  0.000000, -0.000000 )     0.40838932
  WF centre and spread    2  ( -0.000000, -0.000000, -0.000000 )     0.30784970
  WF centre and spread    3  ( -0.000000, -0.000000,  0.000000 )     0.30784980
  WF centre and spread    4  ( -0.000000, -0.000000,  0.000000 )     0.40838973
  WF centre and spread    5  (  0.000000, -0.000000, -0.000000 )     0.30784887
  WF centre and spread    6  ( -0.902512,  0.902512,  0.902512 )     1.14385631
  WF centre and spread    7  (  0.902512, -0.902512, -0.902512 )     1.14385633
  Sum of centres and spreads (  0.000000, -0.000000, -0.000000 )     4.02804006
 
     26    -0.622E-14     0.0000001833        4.0280400584       0.29  <-- CONV
        O_D=      0.0018945 O_OD=      0.3634541 O_TOT=      4.0280401 <-- SPRD
 Delta: O_D=  0.2026269E-10 O_OD= -0.2026873E-10 O_TOT= -0.6217249E-14 <-- DLTA
 ------------------------------------------------------------------------------
 Cycle:     27
  WF centre and spread    1  ( -0.000000,  0.000000, -0.000000 )     0.40838932
  WF centre and spread    2  ( -0.000000, -0.000000, -0.000000 )     0.30784970
  WF centre and spread    3  ( -0.000000, -0.000000,  0.000000 )     0.30784980
  WF centre and spread    4  ( -0.000000, -0.000000,  0.000000 )     0.40838973
  WF centre and spread    5  (  0.000000, -0.000000, -0.000000 )     0.30784887
  WF centre and spread    6  ( -0.902512,  0.902512,  0.902512 )     1.14385631
  WF centre and spread    7  (  0.902512, -0.902512, -0.902512 )     1.14385634
  Sum of centres and spreads (  0.000000, -0.000000, -0.000000 )     4.02804006
 
     27    -0.231E-13     0.0000001777        4.0280400584       0.29  <-- CONV
        O_D=      0.0018945 O_OD=      0.3634541 O_TOT=      4.0280401 <-- SPRD
 Delta: O_D=  0.7726558E-10 O_OD= -0.7728895E-10 O_TOT= -0.2309264E-13 <-- DLTA
 ------------------------------------------------------------------------------
 Cycle:     28
  WF centre and spread    1  ( -0.000000,  0.000000, -0.000000 )     0.40838932
  WF centre and spread    2  ( -0.000000, -0.000000, -0.000000 )     0.30784970
  WF centre and spread    3  ( -0.000000, -0.000000,  0.000000 )     0.30784980
  WF centre and spread    4  ( -0.000000, -0.000000,  0.000000 )     0.40838973
  WF centre and spread    5  (  0.000000, -0.000000, -0.000000 )     0.30784887
  WF centre and spread    6  ( -0.902512,  0.902512,  0.902512 )     1.14385631
  WF centre and spread    7  (  0.902512, -0.902512, -0.902512 )     1.14385634
  Sum of centres and spreads (  0.000000, -0.000000, -0.000000 )     4.02804006
 
     28    -0.799E-14     0.0000001569        4.0280400584       0.30  <-- CONV
        O_D=      0.0018945 O_OD=      0.3634541 O_TOT=      4.0280401 <-- SPRD
 Delta: O_D=  0.3146495E-10 O_OD= -0.3147210E-10 O_TOT= -0.7993606E-14 <-- DLTA
 ------------------------------------------------------------------------------
 Cycle:     29
  WF centre and spread    1  ( -0.000000,  0.000000, -0.000000 )     0.40838932
  WF centre and spread    2  ( -0.000000, -0.000000, -0.000000 )     0.30784970
  WF centre and spread    3  ( -0.000000, -0.000000,  0.000000 )     0.30784980
  WF centre and spread    4  ( -0.000000, -0.000000,  0.000000 )     0.40838973
  WF centre and spread    5  (  0.000000, -0.000000, -0.000000 )     0.30784887
  WF centre and spread    6  ( -0.902512,  0.902512,  0.902512 )     1.14385631
  WF centre and spread    7  (  0.902512, -0.902512, -0.902512 )     1.14385634
  Sum of centres and spreads (  0.000000, -0.000000, -0.000000 )     4.02804006
 
     29    -0.160E-13     0.0000001485        4.0280400584       0.30  <-- CONV
        O_D=      0.0018945 O_OD=      0.3634541 O_TOT=      4.0280401 <-- SPRD
 Delta: O_D=  0.8164901E-10 O_OD= -0.8166545E-10 O_TOT= -0.1598721E-13 <-- DLTA
 ------------------------------------------------------------------------------
 Cycle:     30
  WF centre and spread    1  ( -0.000000,  0.000000, -0.000000 )     0.40838932
  WF centre and spread    2  ( -0.000000, -0.000000, -0.000000 )     0.30784970
  WF centre and spread    3  ( -0.000000, -0.000000,  0.000000 )     0.30784980
  WF centre and spread    4  ( -0.000000, -0.000000,  0.000000 )     0.40838973
  WF centre and spread    5  (  0.000000, -0.000000, -0.000000 )     0.30784887
  WF centre and spread    6  ( -0.902512,  0.902512,  0.902512 )     1.14385631
  WF centre and spread    7  (  0.902512, -0.902512, -0.902512 )     1.14385634
  Sum of centres and spreads (  0.000000, -0.000000, -0.000000 )     4.02804006
 
     30    -0.888E-14     0.0000001272        4.0280400584       0.31  <-- CONV
        O_D=      0.0018945 O_OD=      0.3634541 O_TOT=      4.0280401 <-- SPRD
 Delta: O_D=  0.3421436E-10 O_OD= -0.3422296E-10 O_TOT= -0.8881784E-14 <-- DLTA
 ------------------------------------------------------------------------------
 Cycle:     31
  WF centre and spread    1  ( -0.000000,  0.000000, -0.000000 )     0.40838932
  WF centre and spread    2  ( -0.000000, -0.000000, -0.000000 )     0.30784970
  WF centre and spread    3  ( -0.000000, -0.000000,  0.000000 )     0.30784980
  WF centre and spread    4  ( -0.000000, -0.000000,  0.000000 )     0.40838973
  WF centre and spread    5  (  0.000000, -0.000000, -0.000000 )     0.30784887
  WF centre and spread    6  ( -0.902512,  0.902512,  0.902512 )     1.14385631
  WF centre and spread    7  (  0.902512, -0.902512, -0.902512 )     1.14385634
  Sum of centres and spreads (  0.000000, -0.000000, -0.000000 )     4.02804006
 
     31    -0.888E-15     0.0000001185        4.0280400584       0.31  <-- CONV
        O_D=      0.0018945 O_OD=      0.3634541 O_TOT=      4.0280401 <-- SPRD
 Delta: O_D=  0.6869376E-11 O_OD= -0.6870393E-11 O_TOT= -0.8881784E-15 <-- DLTA
 ------------------------------------------------------------------------------
 Cycle:     32
  WF centre and spread    1  ( -0.000000,  0.000000, -0.000000 )     0.40838932
  WF centre and spread    2  ( -0.000000, -0.000000, -0.000000 )     0.30784970
  WF centre and spread    3  ( -0.000000, -0.000000,  0.000000 )     0.30784980
  WF centre and spread    4  ( -0.000000, -0.000000,  0.000000 )     0.40838973
  WF centre and spread    5  (  0.000000, -0.000000, -0.000000 )     0.30784887
  WF centre and spread    6  ( -0.902512,  0.902512,  0.902512 )     1.14385631
  WF centre and spread    7  (  0.902512, -0.902512, -0.902512 )     1.14385634
  Sum of centres and spreads (  0.000000, -0.000000, -0.000000 )     4.02804006
 
     32    -0.178E-14     0.0000001168        4.0280400584       0.31  <-- CONV
        O_D=      0.0018945 O_OD=      0.3634541 O_TOT=      4.0280401 <-- SPRD
 Delta: O_D=  0.1345952E-10 O_OD= -0.1346151E-10 O_TOT= -0.1776357E-14 <-- DLTA
 ------------------------------------------------------------------------------
 Cycle:     33
  WF centre and spread    1  ( -0.000000,  0.000000, -0.000000 )     0.40838932
  WF centre and spread    2  ( -0.000000, -0.000000, -0.000000 )     0.30784970
  WF centre and spread    3  ( -0.000000, -0.000000,  0.000000 )     0.30784980
  WF centre and spread    4  ( -0.000000, -0.000000,  0.000000 )     0.40838973
  WF centre and spread    5  (  0.000000, -0.000000, -0.000000 )     0.30784887
  WF centre and spread    6  ( -0.902512,  0.902512,  0.902512 )     1.14385631
  WF centre and spread    7  (  0.902512, -0.902512, -0.902512 )     1.14385634
  Sum of centres and spreads (  0.000000, -0.000000, -0.000000 )     4.02804006
 
     33    -0.533E-14     0.0000001136        4.0280400584       0.32  <-- CONV
        O_D=      0.0018945 O_OD=      0.3634541 O_TOT=      4.0280401 <-- SPRD
 Delta: O_D=  0.1932995E-10 O_OD= -0.1933587E-10 O_TOT= -0.5329071E-14 <-- DLTA
 ------------------------------------------------------------------------------
 Cycle:     34
  WF centre and spread    1  ( -0.000000,  0.000000, -0.000000 )     0.40838932
  WF centre and spread    2  ( -0.000000, -0.000000, -0.000000 )     0.30784970
  WF centre and spread    3  ( -0.000000, -0.000000,  0.000000 )     0.30784980
  WF centre and spread    4  ( -0.000000, -0.000000,  0.000000 )     0.40838973
  WF centre and spread    5  (  0.000000, -0.000000, -0.000000 )     0.30784887
  WF centre and spread    6  ( -0.902512,  0.902512,  0.902512 )     1.14385631
  WF centre and spread    7  (  0.902512, -0.902512, -0.902512 )     1.14385634
  Sum of centres and spreads (  0.000000, -0.000000, -0.000000 )     4.02804006
 
     34    -0.266E-14     0.0000001089        4.0280400584       0.32  <-- CONV
        O_D=      0.0018945 O_OD=      0.3634541 O_TOT=      4.0280401 <-- SPRD
 Delta: O_D=  0.2064756E-10 O_OD= -0.2064998E-10 O_TOT= -0.2664535E-14 <-- DLTA
 ------------------------------------------------------------------------------
 Cycle:     35
  WF centre and spread    1  ( -0.000000,  0.000000, -0.000000 )     0.40838932
  WF centre and spread    2  ( -0.000000, -0.000000, -0.000000 )     0.30784970
  WF centre and spread    3  ( -0.000000, -0.000000,  0.000000 )     0.30784980
  WF centre and spread    4  ( -0.000000, -0.000000,  0.000000 )     0.40838973
  WF centre and spread    5  (  0.000000, -0.000000, -0.000000 )     0.30784887
  WF centre and spread    6  ( -0.902512,  0.902512,  0.902512 )     1.14385631
  WF centre and spread    7  (  0.902512, -0.902512, -0.902512 )     1.14385634
  Sum of centres and spreads (  0.000000, -0.000000, -0.000000 )     4.02804006
 
     35    -0.444E-14     0.0000001039        4.0280400584       0.33  <-- CONV
        O_D=      0.0018945 O_OD=      0.3634541 O_TOT=      4.0280401 <-- SPRD
 Delta: O_D=  0.2810120E-10 O_OD= -0.2810507E-10 O_TOT= -0.4440892E-14 <-- DLTA
 ------------------------------------------------------------------------------
 Cycle:     36
  WF centre and spread    1  ( -0.000000,  0.000000, -0.000000 )     0.40838932
  WF centre and spread    2  ( -0.000000, -0.000000, -0.000000 )     0.30784970
  WF centre and spread    3  ( -0.000000, -0.000000,  0.000000 )     0.30784980
  WF centre and spread    4  ( -0.000000, -0.000000,  0.000000 )     0.40838973
  WF centre and spread    5  (  0.000000, -0.000000, -0.000000 )     0.30784887
  WF centre and spread    6  ( -0.902512,  0.902512,  0.902512 )     1.14385631
  WF centre and spread    7  (  0.902512, -0.902512, -0.902512 )     1.14385634
  Sum of centres and spreads (  0.000000, -0.000000, -0.000000 )     4.02804006
 
     36    -0.711E-14     0.0000000972        4.0280400584       0.33  <-- CONV
        O_D=      0.0018945 O_OD=      0.3634541 O_TOT=      4.0280401 <-- SPRD
 Delta: O_D=  0.5935562E-10 O_OD= -0.5936218E-10 O_TOT= -0.7105427E-14 <-- DLTA
 ------------------------------------------------------------------------------
 Cycle:     37
  WF centre and spread    1  ( -0.000000,  0.000000, -0.000000 )     0.40838932
  WF centre and spread    2  ( -0.000000, -0.000000, -0.000000 )     0.30784970
  WF centre and spread    3  ( -0.000000, -0.000000,  0.000000 )     0.30784980
  WF centre and spread    4  ( -0.000000, -0.000000,  0.000000 )     0.40838973
  WF centre and spread    5  (  0.000000, -0.000000, -0.000000 )     0.30784887
  WF centre and spread    6  ( -0.902512,  0.902512,  0.902512 )     1.14385631
  WF centre and spread    7  (  0.902512, -0.902512, -0.902512 )     1.14385634
  Sum of centres and spreads (  0.000000, -0.000000, -0.000000 )     4.02804006
 
     37    -0.444E-14     0.0000000833        4.0280400584       0.34  <-- CONV
        O_D=      0.0018945 O_OD=      0.3634541 O_TOT=      4.0280401 <-- SPRD
 Delta: O_D=  0.5022538E-11 O_OD= -0.5027034E-11 O_TOT= -0.4440892E-14 <-- DLTA
 ------------------------------------------------------------------------------
 Cycle:     38
  WF centre and spread    1  ( -0.000000,  0.000000, -0.000000 )     0.40838932
  WF centre and spread    2  ( -0.000000, -0.000000, -0.000000 )     0.30784970
  WF centre and spread    3  ( -0.000000, -0.000000,  0.000000 )     0.30784980
  WF centre and spread    4  ( -0.000000, -0.000000,  0.000000 )     0.40838973
  WF centre and spread    5  (  0.000000, -0.000000, -0.000000 )     0.30784887
  WF centre and spread    6  ( -0.902512,  0.902512,  0.902512 )     1.14385631
  WF centre and spread    7  (  0.902512, -0.902512, -0.902512 )     1.14385634
  Sum of centres and spreads (  0.000000, -0.000000, -0.000000 )     4.02804006
 
     38     0.355E-14     0.0000000821        4.0280400584       0.35  <-- CONV
        O_D=      0.0018945 O_OD=      0.3634541 O_TOT=      4.0280401 <-- SPRD
 Delta: O_D=  0.1296186E-11 O_OD= -0.1293521E-11 O_TOT=  0.3552714E-14 <-- DLTA
 ------------------------------------------------------------------------------
 Cycle:     39
  WF centre and spread    1  ( -0.000000,  0.000000, -0.000000 )     0.40838932
  WF centre and spread    2  ( -0.000000, -0.000000, -0.000000 )     0.30784970
  WF centre and spread    3  ( -0.000000, -0.000000,  0.000000 )     0.30784980
  WF centre and spread    4  ( -0.000000, -0.000000,  0.000000 )     0.40838973
  WF centre and spread    5  (  0.000000, -0.000000, -0.000000 )     0.30784887
  WF centre and spread    6  ( -0.902512,  0.902512,  0.902512 )     1.14385631
  WF centre and spread    7  (  0.902512, -0.902512, -0.902512 )     1.14385634
  Sum of centres and spreads (  0.000000, -0.000000, -0.000000 )     4.02804006
 
     39    -0.355E-14     0.0000000818        4.0280400584       0.35  <-- CONV
        O_D=      0.0018945 O_OD=      0.3634541 O_TOT=      4.0280401 <-- SPRD
 Delta: O_D=  0.1473244E-10 O_OD= -0.1473571E-10 O_TOT= -0.3552714E-14 <-- DLTA
 ------------------------------------------------------------------------------
 Cycle:     40
  WF centre and spread    1  ( -0.000000,  0.000000, -0.000000 )     0.40838932
  WF centre and spread    2  ( -0.000000, -0.000000, -0.000000 )     0.30784970
  WF centre and spread    3  ( -0.000000, -0.000000,  0.000000 )     0.30784980
  WF centre and spread    4  ( -0.000000, -0.000000,  0.000000 )     0.40838973
  WF centre and spread    5  (  0.000000, -0.000000, -0.000000 )     0.30784887
  WF centre and spread    6  ( -0.902512,  0.902512,  0.902512 )     1.14385631
  WF centre and spread    7  (  0.902512, -0.902512, -0.902512 )     1.14385634
  Sum of centres and spreads (  0.000000, -0.000000, -0.000000 )     4.02804006
 
     40     0.000E+00     0.0000000786        4.0280400584       0.36  <-- CONV
        O_D=      0.0018945 O_OD=      0.3634541 O_TOT=      4.0280401 <-- SPRD
 Delta: O_D=  0.9178361E-11 O_OD= -0.9178436E-11 O_TOT=  0.0000000E+00 <-- DLTA
 ------------------------------------------------------------------------------
 Cycle:     41
  WF centre and spread    1  ( -0.000000,  0.000000, -0.000000 )     0.40838932
  WF centre and spread    2  ( -0.000000, -0.000000, -0.000000 )     0.30784970
  WF centre and spread    3  ( -0.000000, -0.000000,  0.000000 )     0.30784980
  WF centre and spread    4  ( -0.000000, -0.000000,  0.000000 )     0.40838973
  WF centre and spread    5  (  0.000000, -0.000000, -0.000000 )     0.30784887
  WF centre and spread    6  ( -0.902512,  0.902512,  0.902512 )     1.14385631
  WF centre and spread    7  (  0.902512, -0.902512, -0.902512 )     1.14385634
  Sum of centres and spreads (  0.000000, -0.000000, -0.000000 )     4.02804006
 
     41    -0.533E-14     0.0000000765        4.0280400584       0.36  <-- CONV
        O_D=      0.0018945 O_OD=      0.3634541 O_TOT=      4.0280401 <-- SPRD
 Delta: O_D=  0.2209359E-10 O_OD= -0.2209860E-10 O_TOT= -0.5329071E-14 <-- DLTA
 ------------------------------------------------------------------------------
 Cycle:     42
  WF centre and spread    1  ( -0.000000,  0.000000, -0.000000 )     0.40838932
  WF centre and spread    2  ( -0.000000, -0.000000, -0.000000 )     0.30784970
  WF centre and spread    3  ( -0.000000, -0.000000,  0.000000 )     0.30784980
  WF centre and spread    4  ( -0.000000, -0.000000,  0.000000 )     0.40838973
  WF centre and spread    5  (  0.000000, -0.000000, -0.000000 )     0.30784887
  WF centre and spread    6  ( -0.902512,  0.902512,  0.902512 )     1.14385631
  WF centre and spread    7  (  0.902512, -0.902512, -0.902512 )     1.14385634
  Sum of centres and spreads (  0.000000, -0.000000, -0.000000 )     4.02804006
 
     42     0.000E+00     0.0000000717        4.0280400584       0.37  <-- CONV
        O_D=      0.0018945 O_OD=      0.3634541 O_TOT=      4.0280401 <-- SPRD
 Delta: O_D=  0.8917514E-11 O_OD= -0.8917367E-11 O_TOT=  0.0000000E+00 <-- DLTA
 ------------------------------------------------------------------------------
 Cycle:     43
  WF centre and spread    1  ( -0.000000,  0.000000, -0.000000 )     0.40838932
  WF centre and spread    2  ( -0.000000, -0.000000, -0.000000 )     0.30784970
  WF centre and spread    3  ( -0.000000, -0.000000,  0.000000 )     0.30784980
  WF centre and spread    4  ( -0.000000, -0.000000,  0.000000 )     0.40838973
  WF centre and spread    5  (  0.000000, -0.000000, -0.000000 )     0.30784887
  WF centre and spread    6  ( -0.902512,  0.902512,  0.902512 )     1.14385631
  WF centre and spread    7  (  0.902512, -0.902512, -0.902512 )     1.14385634
  Sum of centres and spreads (  0.000000, -0.000000, -0.000000 )     4.02804006
 
     43     0.000E+00     0.0000000698        4.0280400584       0.37  <-- CONV
        O_D=      0.0018945 O_OD=      0.3634541 O_TOT=      4.0280401 <-- SPRD
 Delta: O_D=  0.4314379E-11 O_OD= -0.4314660E-11 O_TOT=  0.0000000E+00 <-- DLTA
 ------------------------------------------------------------------------------
 Cycle:     44
  WF centre and spread    1  ( -0.000000,  0.000000, -0.000000 )     0.40838932
  WF centre and spread    2  ( -0.000000, -0.000000, -0.000000 )     0.30784970
  WF centre and spread    3  ( -0.000000, -0.000000,  0.000000 )     0.30784980
  WF centre and spread    4  ( -0.000000, -0.000000,  0.000000 )     0.40838973
  WF centre and spread    5  (  0.000000, -0.000000, -0.000000 )     0.30784887
  WF centre and spread    6  ( -0.902512,  0.902512,  0.902512 )     1.14385631
  WF centre and spread    7  (  0.902512, -0.902512, -0.902512 )     1.14385634
  Sum of centres and spreads (  0.000000, -0.000000, -0.000000 )     4.02804006
 
     44    -0.888E-15     0.0000000688        4.0280400584       0.38  <-- CONV
        O_D=      0.0018945 O_OD=      0.3634541 O_TOT=      4.0280401 <-- SPRD
 Delta: O_D=  0.2121013E-11 O_OD= -0.2121747E-11 O_TOT= -0.8881784E-15 <-- DLTA
 ------------------------------------------------------------------------------
 Cycle:     45
  WF centre and spread    1  ( -0.000000,  0.000000, -0.000000 )     0.40838932
  WF centre and spread    2  ( -0.000000, -0.000000, -0.000000 )     0.30784970
  WF centre and spread    3  ( -0.000000, -0.000000,  0.000000 )     0.30784980
  WF centre and spread    4  ( -0.000000, -0.000000,  0.000000 )     0.40838973
  WF centre and spread    5  (  0.000000, -0.000000, -0.000000 )     0.30784887
  WF centre and spread    6  ( -0.902512,  0.902512,  0.902512 )     1.14385631
  WF centre and spread    7  (  0.902512, -0.902512, -0.902512 )     1.14385634
  Sum of centres and spreads (  0.000000, -0.000000, -0.000000 )     4.02804006
 
     45     0.000E+00     0.0000000684        4.0280400584       0.38  <-- CONV
        O_D=      0.0018945 O_OD=      0.3634541 O_TOT=      4.0280401 <-- SPRD
 Delta: O_D=  0.6300637E-11 O_OD= -0.6300904E-11 O_TOT=  0.0000000E+00 <-- DLTA
 ------------------------------------------------------------------------------
 Cycle:     46
  WF centre and spread    1  ( -0.000000,  0.000000, -0.000000 )     0.40838932
  WF centre and spread    2  ( -0.000000, -0.000000, -0.000000 )     0.30784970
  WF centre and spread    3  ( -0.000000, -0.000000,  0.000000 )     0.30784980
  WF centre and spread    4  ( -0.000000, -0.000000,  0.000000 )     0.40838973
  WF centre and spread    5  (  0.000000, -0.000000, -0.000000 )     0.30784887
  WF centre and spread    6  ( -0.902512,  0.902512,  0.902512 )     1.14385631
  WF centre and spread    7  (  0.902512, -0.902512, -0.902512 )     1.14385634
  Sum of centres and spreads (  0.000000, -0.000000, -0.000000 )     4.02804006
 
     46    -0.355E-14     0.0000000671        4.0280400584       0.39  <-- CONV
        O_D=      0.0018945 O_OD=      0.3634541 O_TOT=      4.0280401 <-- SPRD
 Delta: O_D=  0.1628934E-10 O_OD= -0.1629297E-10 O_TOT= -0.3552714E-14 <-- DLTA
 ------------------------------------------------------------------------------
 Cycle:     47
  WF centre and spread    1  ( -0.000000,  0.000000, -0.000000 )     0.40838932
  WF centre and spread    2  ( -0.000000, -0.000000, -0.000000 )     0.30784970
  WF centre and spread    3  ( -0.000000, -0.000000,  0.000000 )     0.30784980
  WF centre and spread    4  ( -0.000000, -0.000000,  0.000000 )     0.40838973
  WF centre and spread    5  (  0.000000, -0.000000, -0.000000 )     0.30784887
  WF centre and spread    6  ( -0.902512,  0.902512,  0.902512 )     1.14385631
  WF centre and spread    7  (  0.902512, -0.902512, -0.902512 )     1.14385634
  Sum of centres and spreads (  0.000000, -0.000000, -0.000000 )     4.02804006
 
     47     0.000E+00     0.0000000637        4.0280400584       0.39  <-- CONV
        O_D=      0.0018945 O_OD=      0.3634541 O_TOT=      4.0280401 <-- SPRD
 Delta: O_D=  0.6258498E-11 O_OD= -0.6257772E-11 O_TOT=  0.0000000E+00 <-- DLTA
 ------------------------------------------------------------------------------
 Cycle:     48
  WF centre and spread    1  ( -0.000000,  0.000000, -0.000000 )     0.40838932
  WF centre and spread    2  ( -0.000000, -0.000000, -0.000000 )     0.30784970
  WF centre and spread    3  ( -0.000000, -0.000000,  0.000000 )     0.30784980
  WF centre and spread    4  ( -0.000000, -0.000000,  0.000000 )     0.40838973
  WF centre and spread    5  (  0.000000, -0.000000, -0.000000 )     0.30784887
  WF centre and spread    6  ( -0.902512,  0.902512,  0.902512 )     1.14385631
  WF centre and spread    7  (  0.902512, -0.902512, -0.902512 )     1.14385634
  Sum of centres and spreads (  0.000000, -0.000000, -0.000000 )     4.02804006
 
     48    -0.355E-14     0.0000000623        4.0280400584       0.40  <-- CONV
        O_D=      0.0018945 O_OD=      0.3634541 O_TOT=      4.0280401 <-- SPRD
 Delta: O_D=  0.2182964E-10 O_OD= -0.2183348E-10 O_TOT= -0.3552714E-14 <-- DLTA
 ------------------------------------------------------------------------------
 Cycle:     49
  WF centre and spread    1  ( -0.000000,  0.000000, -0.000000 )     0.40838932
  WF centre and spread    2  ( -0.000000, -0.000000, -0.000000 )     0.30784970
  WF centre and spread    3  ( -0.000000, -0.000000,  0.000000 )     0.30784980
  WF centre and spread    4  ( -0.000000, -0.000000,  0.000000 )     0.40838973
  WF centre and spread    5  (  0.000000, -0.000000, -0.000000 )     0.30784887
  WF centre and spread    6  ( -0.902512,  0.902512,  0.902512 )     1.14385631
  WF centre and spread    7  (  0.902512, -0.902512, -0.902512 )     1.14385634
  Sum of centres and spreads (  0.000000, -0.000000, -0.000000 )     4.02804006
 
     49     0.355E-14     0.0000000578        4.0280400584       0.40  <-- CONV
        O_D=      0.0018945 O_OD=      0.3634541 O_TOT=      4.0280401 <-- SPRD
 Delta: O_D=  0.1955660E-12 O_OD= -0.1928457E-12 O_TOT=  0.3552714E-14 <-- DLTA
 ------------------------------------------------------------------------------
 Cycle:     50
  WF centre and spread    1  ( -0.000000,  0.000000, -0.000000 )     0.40838932
  WF centre and spread    2  ( -0.000000, -0.000000, -0.000000 )     0.30784970
  WF centre and spread    3  ( -0.000000, -0.000000,  0.000000 )     0.30784980
  WF centre and spread    4  ( -0.000000, -0.000000,  0.000000 )     0.40838973
  WF centre and spread    5  (  0.000000, -0.000000, -0.000000 )     0.30784887
  WF centre and spread    6  ( -0.902512,  0.902512,  0.902512 )     1.14385631
  WF centre and spread    7  (  0.902512, -0.902512, -0.902512 )     1.14385634
  Sum of centres and spreads (  0.000000, -0.000000, -0.000000 )     4.02804006
 
     50    -0.266E-14     0.0000000578        4.0280400584       0.41  <-- CONV
        O_D=      0.0018945 O_OD=      0.3634541 O_TOT=      4.0280401 <-- SPRD
 Delta: O_D=  0.7357535E-11 O_OD= -0.7359391E-11 O_TOT= -0.2664535E-14 <-- DLTA
 ------------------------------------------------------------------------------
 Cycle:     51
  WF centre and spread    1  ( -0.000000,  0.000000, -0.000000 )     0.40838932
  WF centre and spread    2  ( -0.000000, -0.000000, -0.000000 )     0.30784970
  WF centre and spread    3  ( -0.000000, -0.000000,  0.000000 )     0.30784980
  WF centre and spread    4  ( -0.000000, -0.000000,  0.000000 )     0.40838973
  WF centre and spread    5  (  0.000000, -0.000000, -0.000000 )     0.30784887
  WF centre and spread    6  ( -0.902512,  0.902512,  0.902512 )     1.14385631
  WF centre and spread    7  (  0.902512, -0.902512, -0.902512 )     1.14385634
  Sum of centres and spreads (  0.000000, -0.000000, -0.000000 )     4.02804006
 
     51     0.266E-14     0.0000000563        4.0280400584       0.41  <-- CONV
        O_D=      0.0018945 O_OD=      0.3634541 O_TOT=      4.0280401 <-- SPRD
 Delta: O_D=  0.1762324E-11 O_OD= -0.1760314E-11 O_TOT=  0.2664535E-14 <-- DLTA
 ------------------------------------------------------------------------------
 Cycle:     52
  WF centre and spread    1  ( -0.000000,  0.000000, -0.000000 )     0.40838932
  WF centre and spread    2  ( -0.000000, -0.000000, -0.000000 )     0.30784970
  WF centre and spread    3  ( -0.000000, -0.000000,  0.000000 )     0.30784980
  WF centre and spread    4  ( -0.000000, -0.000000,  0.000000 )     0.40838973
  WF centre and spread    5  (  0.000000, -0.000000, -0.000000 )     0.30784887
  WF centre and spread    6  ( -0.902512,  0.902512,  0.902512 )     1.14385631
  WF centre and spread    7  (  0.902512, -0.902512, -0.902512 )     1.14385634
  Sum of centres and spreads (  0.000000, -0.000000, -0.000000 )     4.02804006
 
     52    -0.266E-14     0.0000000560        4.0280400584       0.42  <-- CONV
        O_D=      0.0018945 O_OD=      0.3634541 O_TOT=      4.0280401 <-- SPRD
 Delta: O_D=  0.7022364E-11 O_OD= -0.7025103E-11 O_TOT= -0.2664535E-14 <-- DLTA
 ------------------------------------------------------------------------------
 Cycle:     53
  WF centre and spread    1  ( -0.000000,  0.000000, -0.000000 )     0.40838932
  WF centre and spread    2  ( -0.000000, -0.000000, -0.000000 )     0.30784970
  WF centre and spread    3  ( -0.000000, -0.000000,  0.000000 )     0.30784980
  WF centre and spread    4  ( -0.000000, -0.000000,  0.000000 )     0.40838973
  WF centre and spread    5  (  0.000000, -0.000000, -0.000000 )     0.30784887
  WF centre and spread    6  ( -0.902512,  0.902512,  0.902512 )     1.14385631
  WF centre and spread    7  (  0.902512, -0.902512, -0.902512 )     1.14385634
  Sum of centres and spreads (  0.000000, -0.000000, -0.000000 )     4.02804006
 
     53     0.888E-15     0.0000000546        4.0280400584       0.43  <-- CONV
        O_D=      0.0018945 O_OD=      0.3634541 O_TOT=      4.0280401 <-- SPRD
 Delta: O_D=  0.2339558E-11 O_OD= -0.2337963E-11 O_TOT=  0.8881784E-15 <-- DLTA
 ------------------------------------------------------------------------------
 Cycle:     54
  WF centre and spread    1  ( -0.000000,  0.000000, -0.000000 )     0.40838932
  WF centre and spread    2  ( -0.000000, -0.000000, -0.000000 )     0.30784970
  WF centre and spread    3  ( -0.000000, -0.000000,  0.000000 )     0.30784980
  WF centre and spread    4  ( -0.000000, -0.000000,  0.000000 )     0.40838973
  WF centre and spread    5  (  0.000000, -0.000000, -0.000000 )     0.30784887
  WF centre and spread    6  ( -0.902512,  0.902512,  0.902512 )     1.14385631
  WF centre and spread    7  (  0.902512, -0.902512, -0.902512 )     1.14385634
  Sum of centres and spreads (  0.000000, -0.000000, -0.000000 )     4.02804006
 
     54    -0.178E-14     0.0000000541        4.0280400584       0.43  <-- CONV
        O_D=      0.0018945 O_OD=      0.3634541 O_TOT=      4.0280401 <-- SPRD
 Delta: O_D=  0.2006873E-10 O_OD= -0.2007106E-10 O_TOT= -0.1776357E-14 <-- DLTA
 ------------------------------------------------------------------------------
 Cycle:     55
  WF centre and spread    1  ( -0.000000,  0.000000, -0.000000 )     0.40838932
  WF centre and spread    2  ( -0.000000, -0.000000, -0.000000 )     0.30784970
  WF centre and spread    3  ( -0.000000, -0.000000,  0.000000 )     0.30784980
  WF centre and spread    4  ( -0.000000, -0.000000,  0.000000 )     0.40838973
  WF centre and spread    5  (  0.000000, -0.000000, -0.000000 )     0.30784887
  WF centre and spread    6  ( -0.902512,  0.902512,  0.902512 )     1.14385631
  WF centre and spread    7  (  0.902512, -0.902512, -0.902512 )     1.14385634
  Sum of centres and spreads (  0.000000, -0.000000, -0.000000 )     4.02804006
 
     55     0.178E-14     0.0000000502        4.0280400584       0.44  <-- CONV
        O_D=      0.0018945 O_OD=      0.3634541 O_TOT=      4.0280401 <-- SPRD
 Delta: O_D=  0.1345881E-12 O_OD= -0.1328937E-12 O_TOT=  0.1776357E-14 <-- DLTA
 ------------------------------------------------------------------------------
 Cycle:     56
  WF centre and spread    1  ( -0.000000,  0.000000, -0.000000 )     0.40838932
  WF centre and spread    2  ( -0.000000, -0.000000, -0.000000 )     0.30784970
  WF centre and spread    3  ( -0.000000, -0.000000,  0.000000 )     0.30784980
  WF centre and spread    4  ( -0.000000, -0.000000,  0.000000 )     0.40838973
  WF centre and spread    5  (  0.000000, -0.000000, -0.000000 )     0.30784887
  WF centre and spread    6  ( -0.902512,  0.902512,  0.902512 )     1.14385631
  WF centre and spread    7  (  0.902512, -0.902512, -0.902512 )     1.14385634
  Sum of centres and spreads (  0.000000, -0.000000, -0.000000 )     4.02804006
 
     56     0.000E+00     0.0000000502        4.0280400584       0.44  <-- CONV
        O_D=      0.0018945 O_OD=      0.3634541 O_TOT=      4.0280401 <-- SPRD
 Delta: O_D=  0.6541344E-11 O_OD= -0.6540934E-11 O_TOT=  0.0000000E+00 <-- DLTA
 ------------------------------------------------------------------------------
 Cycle:     57
  WF centre and spread    1  ( -0.000000,  0.000000, -0.000000 )     0.40838932
  WF centre and spread    2  ( -0.000000, -0.000000, -0.000000 )     0.30784970
  WF centre and spread    3  ( -0.000000, -0.000000,  0.000000 )     0.30784980
  WF centre and spread    4  ( -0.000000, -0.000000,  0.000000 )     0.40838973
  WF centre and spread    5  (  0.000000, -0.000000, -0.000000 )     0.30784887
  WF centre and spread    6  ( -0.902512,  0.902512,  0.902512 )     1.14385631
  WF centre and spread    7  (  0.902512, -0.902512, -0.902512 )     1.14385634
  Sum of centres and spreads (  0.000000, -0.000000, -0.000000 )     4.02804006
 
     57    -0.355E-14     0.0000000490        4.0280400584       0.45  <-- CONV
        O_D=      0.0018945 O_OD=      0.3634541 O_TOT=      4.0280401 <-- SPRD
 Delta: O_D=  0.2026411E-11 O_OD= -0.2030875E-11 O_TOT= -0.3552714E-14 <-- DLTA
 ------------------------------------------------------------------------------
 Cycle:     58
  WF centre and spread    1  ( -0.000000,  0.000000, -0.000000 )     0.40838932
  WF centre and spread    2  ( -0.000000, -0.000000, -0.000000 )     0.30784970
  WF centre and spread    3  ( -0.000000, -0.000000,  0.000000 )     0.30784980
  WF centre and spread    4  ( -0.000000, -0.000000,  0.000000 )     0.40838973
  WF centre and spread    5  (  0.000000, -0.000000, -0.000000 )     0.30784886
  WF centre and spread    6  ( -0.902512,  0.902512,  0.902512 )     1.14385631
  WF centre and spread    7  (  0.902512, -0.902512, -0.902512 )     1.14385634
  Sum of centres and spreads (  0.000000, -0.000000, -0.000000 )     4.02804006
 
     58     0.000E+00     0.0000000486        4.0280400584       0.45  <-- CONV
        O_D=      0.0018945 O_OD=      0.3634541 O_TOT=      4.0280401 <-- SPRD
 Delta: O_D=  0.2061145E-11 O_OD= -0.2060629E-11 O_TOT=  0.0000000E+00 <-- DLTA
 ------------------------------------------------------------------------------
 Cycle:     59
  WF centre and spread    1  ( -0.000000,  0.000000, -0.000000 )     0.40838932
  WF centre and spread    2  ( -0.000000, -0.000000, -0.000000 )     0.30784970
  WF centre and spread    3  ( -0.000000, -0.000000,  0.000000 )     0.30784980
  WF centre and spread    4  ( -0.000000, -0.000000,  0.000000 )     0.40838973
  WF centre and spread    5  (  0.000000, -0.000000, -0.000000 )     0.30784886
  WF centre and spread    6  ( -0.902512,  0.902512,  0.902512 )     1.14385631
  WF centre and spread    7  (  0.902512, -0.902512, -0.902512 )     1.14385634
  Sum of centres and spreads (  0.000000, -0.000000, -0.000000 )     4.02804006
 
     59     0.266E-14     0.0000000482        4.0280400584       0.46  <-- CONV
        O_D=      0.0018945 O_OD=      0.3634541 O_TOT=      4.0280401 <-- SPRD
 Delta: O_D=  0.2912007E-11 O_OD= -0.2909117E-11 O_TOT=  0.2664535E-14 <-- DLTA
 ------------------------------------------------------------------------------
 Cycle:     60
  WF centre and spread    1  ( -0.000000,  0.000000, -0.000000 )     0.40838932
  WF centre and spread    2  ( -0.000000, -0.000000, -0.000000 )     0.30784970
  WF centre and spread    3  ( -0.000000, -0.000000,  0.000000 )     0.30784980
  WF centre and spread    4  ( -0.000000, -0.000000,  0.000000 )     0.40838973
  WF centre and spread    5  (  0.000000, -0.000000, -0.000000 )     0.30784886
  WF centre and spread    6  ( -0.902512,  0.902512,  0.902512 )     1.14385631
  WF centre and spread    7  (  0.902512, -0.902512, -0.902512 )     1.14385634
  Sum of centres and spreads (  0.000000, -0.000000, -0.000000 )     4.02804006
 
     60    -0.178E-14     0.0000000477        4.0280400584       0.46  <-- CONV
        O_D=      0.0018945 O_OD=      0.3634541 O_TOT=      4.0280401 <-- SPRD
 Delta: O_D=  0.1821997E-10 O_OD= -0.1822220E-10 O_TOT= -0.1776357E-14 <-- DLTA
 ------------------------------------------------------------------------------
 Cycle:     61
  WF centre and spread    1  ( -0.000000,  0.000000, -0.000000 )     0.40838932
  WF centre and spread    2  ( -0.000000, -0.000000, -0.000000 )     0.30784970
  WF centre and spread    3  ( -0.000000, -0.000000,  0.000000 )     0.30784980
  WF centre and spread    4  ( -0.000000, -0.000000,  0.000000 )     0.40838973
  WF centre and spread    5  (  0.000000, -0.000000, -0.000000 )     0.30784886
  WF centre and spread    6  ( -0.902512,  0.902512,  0.902512 )     1.14385631
  WF centre and spread    7  (  0.902512, -0.902512, -0.902512 )     1.14385634
  Sum of centres and spreads (  0.000000, -0.000000, -0.000000 )     4.02804006
 
     61    -0.178E-14     0.0000000443        4.0280400584       0.47  <-- CONV
        O_D=      0.0018945 O_OD=      0.3634541 O_TOT=      4.0280401 <-- SPRD
 Delta: O_D=  0.2948378E-11 O_OD= -0.2949085E-11 O_TOT= -0.1776357E-14 <-- DLTA
 ------------------------------------------------------------------------------
 Cycle:     62
  WF centre and spread    1  ( -0.000000,  0.000000, -0.000000 )     0.40838932
  WF centre and spread    2  ( -0.000000, -0.000000, -0.000000 )     0.30784970
  WF centre and spread    3  ( -0.000000, -0.000000,  0.000000 )     0.30784980
  WF centre and spread    4  ( -0.000000, -0.000000,  0.000000 )     0.40838973
  WF centre and spread    5  (  0.000000, -0.000000, -0.000000 )     0.30784886
  WF centre and spread    6  ( -0.902512,  0.902512,  0.902512 )     1.14385631
  WF centre and spread    7  (  0.902512, -0.902512, -0.902512 )     1.14385634
  Sum of centres and spreads (  0.000000, -0.000000, -0.000000 )     4.02804006
 
     62     0.000E+00     0.0000000437        4.0280400584       0.47  <-- CONV
        O_D=      0.0018945 O_OD=      0.3634541 O_TOT=      4.0280401 <-- SPRD
 Delta: O_D=  0.5797704E-11 O_OD= -0.5798362E-11 O_TOT=  0.0000000E+00 <-- DLTA
 ------------------------------------------------------------------------------
 Cycle:     63
  WF centre and spread    1  ( -0.000000,  0.000000, -0.000000 )     0.40838932
  WF centre and spread    2  ( -0.000000, -0.000000, -0.000000 )     0.30784970
  WF centre and spread    3  ( -0.000000, -0.000000,  0.000000 )     0.30784980
  WF centre and spread    4  ( -0.000000, -0.000000,  0.000000 )     0.40838973
  WF centre and spread    5  (  0.000000, -0.000000, -0.000000 )     0.30784886
  WF centre and spread    6  ( -0.902512,  0.902512,  0.902512 )     1.14385631
  WF centre and spread    7  (  0.902512, -0.902512, -0.902512 )     1.14385634
  Sum of centres and spreads (  0.000000, -0.000000, -0.000000 )     4.02804006
 
     63     0.266E-14     0.0000000427        4.0280400584       0.48  <-- CONV
        O_D=      0.0018945 O_OD=      0.3634541 O_TOT=      4.0280401 <-- SPRD
 Delta: O_D=  0.9326387E-12 O_OD= -0.9299783E-12 O_TOT=  0.2664535E-14 <-- DLTA
 ------------------------------------------------------------------------------
 Cycle:     64
  WF centre and spread    1  ( -0.000000,  0.000000, -0.000000 )     0.40838932
  WF centre and spread    2  ( -0.000000, -0.000000, -0.000000 )     0.30784969
  WF centre and spread    3  ( -0.000000, -0.000000,  0.000000 )     0.30784980
  WF centre and spread    4  ( -0.000000, -0.000000,  0.000000 )     0.40838973
  WF centre and spread    5  (  0.000000, -0.000000, -0.000000 )     0.30784886
  WF centre and spread    6  ( -0.902512,  0.902512,  0.902512 )     1.14385631
  WF centre and spread    7  (  0.902512, -0.902512, -0.902512 )     1.14385634
  Sum of centres and spreads (  0.000000, -0.000000, -0.000000 )     4.02804006
 
     64    -0.178E-14     0.0000000425        4.0280400584       0.48  <-- CONV
        O_D=      0.0018945 O_OD=      0.3634541 O_TOT=      4.0280401 <-- SPRD
 Delta: O_D=  0.1117680E-10 O_OD= -0.1117884E-10 O_TOT= -0.1776357E-14 <-- DLTA
 ------------------------------------------------------------------------------
 Cycle:     65
  WF centre and spread    1  ( -0.000000,  0.000000, -0.000000 )     0.40838932
  WF centre and spread    2  ( -0.000000, -0.000000, -0.000000 )     0.30784969
[...]
 |                          1               8                                 |
 +----------------------------------------------------------------------------+
 | Completeness relation is fully satisfied [Eq. (B1), PRB 56, 12847 (1997)]  |
 +----------------------------------------------------------------------------+
 |                  b_k Vectors (Ang^-1) and Weights (Ang^2)                  |
 |                  ----------------------------------------                  |
 |            No.         b_k(x)      b_k(y)      b_k(z)        w_b           |
 |            ---        --------------------------------     --------        |
 |             1         0.435118    0.435118    0.435118     0.660231        |
 |             2        -0.435118   -0.435118    0.435118     0.660231        |
 |             3        -0.435118    0.435118   -0.435118     0.660231        |
 |             4        -0.435118    0.435118    0.435118     0.660231        |
 |             5         0.435118   -0.435118    0.435118     0.660231        |
 |             6        -0.435118   -0.435118   -0.435118     0.660231        |
 |             7         0.435118    0.435118   -0.435118     0.660231        |
 |             8         0.435118   -0.435118   -0.435118     0.660231        |
 +----------------------------------------------------------------------------+
 |                           b_k Directions (Ang^-1)                          |
 |                           -----------------------                          |
 |            No.           x           y           z                         |
 |            ---        --------------------------------                     |
 |             1         0.435118    0.435118    0.435118                     |
 |             2        -0.435118   -0.435118    0.435118                     |
 |             3        -0.435118    0.435118   -0.435118                     |
 |             4        -0.435118    0.435118    0.435118                     |
 +----------------------------------------------------------------------------+
  
 *============================================================================*
 |                              MEMORY ESTIMATE                               |
 |         Maximum RAM allocated during each phase of the calculation         |
 *============================================================================*
 |                        Disentanglement            1.76 Mb                  |
 |                            Wannierise:            1.21 Mb                  |
 *----------------------------------------------------------------------------*
  
 Reading restart information from file copper.chk :
 written on 29Oct2014 at 10:41:45 ... done

 Restarting Wannier90 from plotting routines ...

 *---------------------------------------------------------------------------*
 |                               PLOTTING                                    |
 *---------------------------------------------------------------------------*
 
 
 Calculating interpolated band-structure
 
 Time to calculate interpolated band structure       0.075 (sec)
 
 Time for plotting              0.076 (sec)
 Total Execution Time           0.120 (sec)

 *===========================================================================*
 |                             TIMING INFORMATION                            |
 *===========================================================================*
 |    Tag                                                Ncalls      Time (s)|
 |---------------------------------------------------------------------------|
 |kmesh: get                                        :         1         0.027|
 |plot: main                                        :         1         0.076|
 *---------------------------------------------------------------------------*
 
 All done: wannier90 exiting
 
             +---------------------------------------------------+
             |                                                   |
             |                   WANNIER90                       |
             |                                                   |
             +---------------------------------------------------+
             |                                                   |
             |        Welcome to the Maximally-Localized         |
             |        Generalized Wannier Functions code         |
             |            http://www.wannier.org                 |
             |                                                   |
             |  Wannier90 v2.0 Authors:                          |
             |    Arash A. Mostofi  (Imperial College London)    |
             |    Giovanni Pizzi    (EPFL)                       |
             |    Ivo Souza         (Universidad del Pais Vasco) |
             |    Jonathan R. Yates (University of Oxford)       |
             |                                                   |
             |  Wannier90 Contributors:                          |
             |    Young-Su Lee      (KIST, S. Korea)             |
             |    Matthew Shelley   (Imperial College London)    |
             |    Nicolas Poilvert  (Harvard)                    |
             |                                                   |
             |  Wannier77 Authors:                               |
             |    Nicola Marzari    (EPFL)                       |
             |    Ivo Souza         (Universidad del Pais Vasco) |
             |    David Vanderbilt  (Rutgers University)         |
             |                                                   |
             |  Please cite                                      |
             |                                                   |
             |  [ref] "Wannier90: A Tool for Obtaining Maximally |
             |         Localised Wannier Functions"              |
             |        A. A. Mostofi, J. R. Yates, Y.-S. Lee,     |
             |        I. Souza, D. Vanderbilt and N. Marzari     |
             |        Comput. Phys. Commun. 178, 685 (2008)      |
             |                                                   |
             |  in any publications arising from the use of      |
             |  this code. For the method please cite            |
             |                                                   |
             |  [ref] "Maximally Localized Generalised Wannier   |
             |         Functions for Composite Energy Bands"     |
             |         N. Marzari and D. Vanderbilt              |
             |         Phys. Rev. B 56 12847 (1997)              |
             |                                                   |
             |  [ref] "Maximally Localized Wannier Functions     |
             |         for Entangled Energy Bands"               |
             |         I. Souza, N. Marzari and D. Vanderbilt    |
             |         Phys. Rev. B 65 035109 (2001)             |
             |                                                   |
             |                                                   |
             | Copyright (c) 1996-2013                           |
             |        A. A. Mostofi, J. R. Yates, Y.-S. Lee,     |
             |        I. Souza, D. Vanderbilt and N. Marzari     |
             |                                                   |
             |        Release: 2.0    14th October 2013          |
             |                                                   |
             | This program is free software; you can            |
             | redistribute it and/or modify it under the terms  |
             | of the GNU General Public License as published by |
             | the Free Software Foundation; either version 2 of |
             | the License, or (at your option) any later version|
             |                                                   |
             | This program is distributed in the hope that it   |
             | will be useful, but WITHOUT ANY WARRANTY; without |
             | even the implied warranty of MERCHANTABILITY or   |
             | FITNESS FOR A PARTICULAR PURPOSE. See the GNU     |
             | General Public License for more details.          |
             |                                                   |
             | You should have received a copy of the GNU General|
             | Public License along with this program; if not,   |
             | write to the Free Software Foundation, Inc.,      |
             | 675 Mass Ave, Cambridge, MA 02139, USA.           |
             |                                                   |
             +---------------------------------------------------+
             |    Execution started on 29Oct2014 at 11:52:02     |
             +---------------------------------------------------+
 
 ******************************************************************************
 * -> Using CODATA 2006 constant values                                       *
 *    (http://physics.nist.gov/cuu/Constants/index.html)                      *
 * -> Using Bohr value from CODATA                                            *
 ******************************************************************************
 
 
                                    ------
                                    SYSTEM
                                    ------
 
                              Lattice Vectors (Ang)
                    a_1    -1.805023   0.000000   1.805023
                    a_2     0.000000   1.805023   1.805023
                    a_3    -1.805023   1.805023   0.000000
 
                   Unit Cell Volume:      11.76193  (Ang^3)
 
                        Reciprocal-Space Vectors (Ang^-1)
                    b_1    -1.740472  -1.740472   1.740472
                    b_2     1.740472   1.740472   1.740472
                    b_3    -1.740472   1.740472  -1.740472
  
 *----------------------------------------------------------------------------*
 |   Site       Fractional Coordinate          Cartesian Coordinate (Ang)     |
 +----------------------------------------------------------------------------+
 | Cu   1   0.00000   0.00000   0.00000   |    0.00000   0.00000   0.00000    |
 *----------------------------------------------------------------------------*
  
                                ------------
                                K-POINT GRID
                                ------------
  
             Grid size =  4 x  4 x  4      Total points =   64
  
  
 *---------------------------------- MAIN ------------------------------------*
 |  Number of Wannier Functions               :                 7             |
 |  Number of input Bloch states              :                12             |
 |  Output verbosity (1=low, 5=high)          :                 1             |
 |  Timing Level (1=low, 5=high)              :                 1             |
 |  Optimisation (0=memory, 3=speed)          :                 3             |
 |  Length Unit                               :               Ang             |
 |  Post-processing setup (write *.nnkp)      :                 F             |
 |  Using Gamma-only branch of algorithms     :                 F             |
 *----------------------------------------------------------------------------*
 *------------------------------- WANNIERISE ---------------------------------*
 |  Total number of iterations                :               200             |
 |  Number of CG steps before reset           :                 5             |
 |  Trial step length for line search         :             2.000             |
 |  Convergence tolerence                     :         0.100E-09             |
 |  Convergence window                        :                -1             |
 |  Iterations between writing output         :                 1             |
 |  Iterations between backing up to disk     :               100             |
 |  Write r^2_nm to file                      :                 F             |
 |  Write xyz WF centres to file              :                 F             |
 |  Write on-site energies <0n|H|0n> to file  :                 F             |
 |  Use guiding centre to control phases      :                 F             |
 |  Use phases for initial projections        :                 F             |
 *----------------------------------------------------------------------------*
 *------------------------------- DISENTANGLE --------------------------------*
 |  Using band disentanglement                :                 T             |
 |  Total number of iterations                :                60             |
 |  Mixing ratio                              :             1.000             |
 |  Convergence tolerence                     :         1.000E-10             |
 |  Convergence window                        :                 3             |
 *----------------------------------------------------------------------------*
 *-------------------------------- PLOTTING ----------------------------------*
 |  Plotting interpolated bandstructure       :                 T             |
 |   Number of K-path sections                :                 5             |
 |   Divisions along first K-path section     :               100             |
 |   Output format                            :           gnuplot             |
 |   Output mode                              :               s-k             |
 *----------------------------------------------------------------------------*
 |   K-space path sections:                                                   |
 |    From:  G    0.000  0.000  0.000     To:  X    0.500  0.500  0.000       |
 |    From:  X    0.500  0.500  0.000     To:  W    0.500  0.750  0.250       |
 |    From:  W    0.500  0.750  0.250     To:  L    0.000  0.500  0.000       |
 |    From:  L    0.000  0.500  0.000     To:  G    0.000  0.000  0.000       |
 |    From:  G    0.000  0.000  0.000     To:  K    0.000  0.500 -0.500       |
 *----------------------------------------------------------------------------*
 Time to read parameters        0.011 (sec)

 *---------------------------------- K-MESH ----------------------------------*
 +----------------------------------------------------------------------------+
 |                    Distance to Nearest-Neighbour Shells                    |
 |                    ------------------------------------                    |
 |          Shell             Distance (Ang^-1)          Multiplicity         |
 |          -----             -----------------          ------------         |
 |             1                   0.753646                      8            |
 |             2                   0.870236                      6            |
 |             3                   1.230700                     12            |
 |             4                   1.443123                     24            |
 |             5                   1.507293                      8            |
 |             6                   1.740472                      6            |
 |             7                   1.896635                     24            |
 |             8                   1.945907                     24            |
 |             9                   2.131634                     24            |
 |            10                   2.260939                     32            |
 |            11                   2.461399                     12            |
 |            12                   2.574193                     48            |
 +----------------------------------------------------------------------------+
 | The b-vectors are chosen automatically                                     |
 | The following shells are used:   1                                         |
 +----------------------------------------------------------------------------+
 |                        Shell   # Nearest-Neighbours                        |
 |                        -----   --------------------                        |
 |                          1               8                                 |
 +----------------------------------------------------------------------------+
 | Completeness relation is fully satisfied [Eq. (B1), PRB 56, 12847 (1997)]  |
 +----------------------------------------------------------------------------+
 |                  b_k Vectors (Ang^-1) and Weights (Ang^2)                  |
 |                  ----------------------------------------                  |
 |            No.         b_k(x)      b_k(y)      b_k(z)        w_b           |
 |            ---        --------------------------------     --------        |
 |             1         0.435118    0.435118    0.435118     0.660231        |
 |             2        -0.435118   -0.435118    0.435118     0.660231        |
 |             3        -0.435118    0.435118   -0.435118     0.660231        |
 |             4        -0.435118    0.435118    0.435118     0.660231        |
 |             5         0.435118   -0.435118    0.435118     0.660231        |
 |             6        -0.435118   -0.435118   -0.435118     0.660231        |
 |             7         0.435118    0.435118   -0.435118     0.660231        |
 |             8         0.435118   -0.435118   -0.435118     0.660231        |
 +----------------------------------------------------------------------------+
 |                           b_k Directions (Ang^-1)                          |
 |                           -----------------------                          |
 |            No.           x           y           z                         |
 |            ---        --------------------------------                     |
 |             1         0.435118    0.435118    0.435118                     |
 |             2        -0.435118   -0.435118    0.435118                     |
 |             3        -0.435118    0.435118   -0.435118                     |
 |             4        -0.435118    0.435118    0.435118                     |
 +----------------------------------------------------------------------------+
  
 *============================================================================*
 |                              MEMORY ESTIMATE                               |
 |         Maximum RAM allocated during each phase of the calculation         |
 *============================================================================*
 |                        Disentanglement            1.76 Mb                  |
 |                            Wannierise:            1.21 Mb                  |
 *----------------------------------------------------------------------------*
  
 Reading restart information from file copper.chk :
 written on 29Oct2014 at 10:41:45 ... done

 Restarting Wannier90 from plotting routines ...

 *---------------------------------------------------------------------------*
 |                               PLOTTING                                    |
 *---------------------------------------------------------------------------*
 
 
 Calculating interpolated band-structure
 
 Time to calculate interpolated band structure       0.078 (sec)
 
 Time for plotting              0.079 (sec)
 Total Execution Time           0.121 (sec)

 *===========================================================================*
 |                             TIMING INFORMATION                            |
 *===========================================================================*
 |    Tag                                                Ncalls      Time (s)|
 |---------------------------------------------------------------------------|
 |kmesh: get                                        :         1         0.028|
 |plot: main                                        :         1         0.079|
 *---------------------------------------------------------------------------*
 
 All done: wannier90 exiting
