unknown system                          
   1.00000000000000     
    -1.613990    0.000000    1.613990
     0.000000    1.613990    1.613990
    -1.613990    1.613990    0.000000
   C 
     2
Direct
  0.875000  0.875000  0.875000
  0.125000  0.125000  0.125000
 
   28   28   28
  18.407      18.322      18.083      17.681      17.116      16.476      15.951      15.747      15.951      16.476    
  17.116      17.681      18.083      18.322      18.407      18.322      18.083      17.681      17.116      16.476    
  15.951      15.747      15.951      16.476      17.116      17.681      18.083      18.322      18.322      18.510    
  18.460      18.098      17.460      16.751      16.280      16.280      16.751      17.460      18.098      18.460    
  18.510      18.322      17.962      17.461      16.877      16.247      15.611      15.064      14.739      14.739    
  15.064      15.611      16.247      16.877      17.461      17.962      18.083      18.460      18.438      17.957    
  17.168      16.430      16.129      16.430      17.168      17.957      18.438      18.460      18.083      17.461    
  16.709      15.894      15.098      14.373      13.768      13.355      13.207      13.355      13.768      14.373    
  15.098      15.894      16.709      17.461      17.681      18.098      17.957      17.291      16.414      15.798    
  15.798      16.414      17.291      17.957      18.098      17.681      16.877      15.894      14.863      13.879    
  13.012      12.307      11.800      11.532      11.532      11.800      12.307      13.012      13.879      14.863    
  15.894      16.877      17.116      17.460      17.168      16.414      15.637      15.310      15.637      16.414    
  17.168      17.460      17.116      16.247      15.098      13.879      12.711      11.693      10.873      10.267    
  9.8923      9.7648      9.8923      10.267      10.873      11.693      12.711      13.879      15.098      16.247    
  16.476      16.751      16.430      15.798      15.310      15.310      15.798      16.430      16.751      16.476    
  15.611      14.373      13.012      11.693      10.523      9.5754      8.8683      8.3978      8.1618      8.1618    
  8.3978      8.8683      9.5755      10.523      11.693      13.012      14.373      15.611      15.951      16.280    
  16.129      15.798      15.637      15.798      16.129      16.281      15.951      15.064      13.768      12.307    
  10.873      9.5755      8.5031      7.6867      7.1188      6.7842      6.6736      6.7842      7.1188      7.6867    
  8.5031      9.5755      10.873      12.307      13.768      15.064      15.747      16.280      16.430      16.414    
  16.414      16.430      16.281      15.747      14.739      13.355      11.800      10.267      8.8684      7.6867    
  6.7664      6.1030      5.6757      5.4665      5.4665      5.6757      6.1030      6.7664      7.6867      8.8683    
  10.267      11.800      13.355      14.739      15.951      16.751      17.168      17.291      17.168      16.751    
  15.951      14.739      13.207      11.532      9.8922      8.3979      7.1188      6.1030      5.3495      4.8354    
  4.5369      4.4390      4.5369      4.8354      5.3495      6.1030      7.1188      8.3978      9.8923      11.532    
  13.207      14.739      16.476      17.460      17.957      17.957      17.460      16.476      15.064      13.355    
  11.532      9.7648      8.1618      6.7842      5.6757      4.8354      4.2385      3.8574      3.6718      3.6718    
  3.8574      4.2386      4.8354      5.6757      6.7842      8.1618      9.7648      11.532      13.355      15.064    
  17.116      18.098      18.438      18.098      17.116      15.611      13.768      11.800      9.8922      8.1618    
  6.6735      5.4665      4.5369      3.8574      3.3966      3.1297      3.0422      3.1297      3.3966      3.8574    
  4.5369      5.4665      6.6736      8.1618      9.8923      11.800      13.768      15.611      17.681      18.460    
  18.460      17.681      16.247      14.373      12.307      10.267      8.3979      6.7842      5.4665      4.4390    
  3.6717      3.1297      2.7838      2.6152      2.6152      2.7838      3.1297      3.6718      4.4390      5.4665    
  6.7842      8.3978      10.267      12.307      14.373      16.247      18.083      18.510      18.083      16.877    
  15.098      13.012      10.873      8.8684      7.1188      5.6757      4.5369      3.6717      3.0423      2.6152    
  2.3675      2.2863      2.3675      2.6152      3.0422      3.6718      4.5369      5.6757      7.1188      8.8683    
  10.873      13.012      15.098      16.877      18.322      18.322      17.461      15.894      13.879      11.693    
  9.5755      7.6867      6.1030      4.8354      3.8574      3.1297      2.6152      2.2863      2.1257      2.1257    
  2.2863      2.6152      3.1297      3.8574      4.8354      6.1030      7.6867      9.5754      11.693      13.879    
  15.894      17.461      18.407      17.962      16.709      14.863      12.711      10.523      8.5031      6.7664    
  5.3495      4.2385      3.3966      2.7838      2.3675      2.1257      2.0464      2.1257      2.3675      2.7838    
  3.3966      4.2385      5.3495      6.7664      8.5031      10.523      12.711      14.863      16.709      17.962    
  18.322      17.461      15.894      13.879      11.693      9.5754      7.6867      6.1030      4.8354      3.8574    
  3.1297      2.6152      2.2863      2.1257      2.1257      2.2863      2.6152      3.1297      3.8574      4.8354    
  6.1030      7.6867      9.5755      11.693      13.879      15.894      17.461      18.322      18.083      16.877    
  15.098      13.012      10.873      8.8683      7.1188      5.6757      4.5369      3.6718      3.0422      2.6152    
  2.3675      2.2863      2.3675      2.6152      3.0423      3.6717      4.5369      5.6757      7.1188      8.8684    
  10.873      13.012      15.098      16.877      18.083      18.510      17.681      16.247      14.373      12.307    
  10.267      8.3978      6.7842      5.4665      4.4390      3.6718      3.1297      2.7838      2.6152      2.6152    
  2.7838      3.1297      3.6717      4.4390      5.4665      6.7842      8.3979      10.267      12.307      14.373    
  16.247      17.681      18.460      18.460      17.116      15.611      13.768      11.800      9.8923      8.1618    
  6.6736      5.4665      4.5369      3.8574      3.3966      3.1297      3.0422      3.1297      3.3966      3.8574    
  4.5369      5.4665      6.6735      8.1618      9.8922      11.800      13.768      15.611      17.116      18.098    
  18.438      18.098      16.476      15.064      13.355      11.532      9.7648      8.1618      6.7842      5.6757    
  4.8354      4.2386      3.8574      3.6718      3.6718      3.8574      4.2385      4.8354      5.6757      6.7842    
  8.1618      9.7648      11.532      13.355      15.064      16.476      17.460      17.957      17.957      17.460    
  15.951      14.739      13.207      11.532      9.8923      8.3978      7.1188      6.1030      5.3495      4.8354    
  4.5369      4.4390      4.5369      4.8354      5.3495      6.1030      7.1188      8.3979      9.8922      11.532    
  13.207      14.739      15.951      16.751      17.168      17.291      17.168      16.751      15.747      14.739    
  13.355      11.800      10.267      8.8683      7.6867      6.7664      6.1030      5.6757      5.4665      5.4665    
  5.6757      6.1030      6.7664      7.6867      8.8684      10.267      11.800      13.355      14.739      15.747    
  16.281      16.430      16.414      16.414      16.430      16.280      15.951      15.064      13.768      12.307    
  10.873      9.5755      8.5031      7.6867      7.1188      6.7842      6.6736      6.7842      7.1188      7.6867    
  8.5031      9.5755      10.873      12.307      13.768      15.064      15.951      16.281      16.129      15.798    
  15.637      15.798      16.129      16.280      16.476      15.611      14.373      13.012      11.693      10.523    
  9.5755      8.8683      8.3978      8.1618      8.1618      8.3978      8.8683      9.5754      10.523      11.693    
  13.012      14.373      15.611      16.476      16.751      16.430      15.798      15.310      15.310      15.798    
  16.430      16.751      17.116      16.247      15.098      13.879      12.711      11.693      10.873      10.267    
  9.8923      9.7648      9.8923      10.267      10.873      11.693      12.711      13.879      15.098      16.247    
  17.116      17.460      17.168      16.414      15.637      15.310      15.637      16.414      17.168      17.460    
  17.681      16.877      15.894      14.863      13.879      13.012      12.307      11.800      11.532      11.532    
  11.800      12.307      13.012      13.879      14.863      15.894      16.877      17.681      18.098      17.957    
  17.291      16.414      15.798      15.798      16.414      17.291      17.957      18.098      18.083      17.461    
  16.709      15.894      15.098      14.373      13.768      13.355      13.207      13.355      13.768      14.373    
  15.098      15.894      16.709      17.461      18.083      18.460      18.438      17.957      17.168      16.430    
  16.129      16.430      17.168      17.957      18.438      18.460      18.322      17.962      17.461      16.877    
  16.247      15.611      15.064      14.739      14.739      15.064      15.611      16.247      16.877      17.461    
  17.962      18.322      18.510      18.460      18.098      17.460      16.751      16.280      16.280      16.751    
  17.460      18.098      18.460      18.510      18.322      18.510      18.460      18.098      17.460      16.751    
  16.280      16.280      16.751      17.460      18.098      18.460      18.510      18.322      17.962      17.461    
  16.877      16.247      15.611      15.064      14.739      14.739      15.064      15.611      16.247      16.877    
  17.461      17.962      18.510      18.874      18.813      18.262      17.390      16.583      16.255      16.583    
  17.390      18.262      18.813      18.874      18.510      17.882      17.113      16.274      15.450      14.698    
  14.069      13.639      13.484      13.638      14.069      14.698      15.450      16.274      17.113      17.882    
  18.460      18.813      18.531      17.665      16.584      15.839      15.839      16.584      17.665      18.531    
  18.813      18.460      17.658      16.644      15.567      14.526      13.604      12.853      12.311      12.024    
  12.024      12.311      12.853      13.604      14.526      15.567      16.644      17.658      18.098      18.262    
  17.665      16.545      15.465      15.020      15.465      16.545      17.665      18.262      18.098      17.283    
  16.105      14.822      13.578      12.480      11.588      10.928      10.519      10.380      10.519      10.928    
  11.588      12.480      13.578      14.822      16.105      17.283      17.460      17.390      16.584      15.465    
  14.669      14.669      15.465      16.584      17.390      17.459      16.755      15.530      14.102      12.694    
  11.425      10.388      9.6094      9.0903      8.8296      8.8296      9.0903      9.6094      10.388      11.425    
  12.694      14.102      15.530      16.755      16.751      16.583      15.839      15.020      14.669      15.020    
  15.839      16.583      16.751      16.157      14.954      13.452      11.927      10.524      9.3464      8.4442    
  7.8157      7.4455      7.3232      7.4455      7.8157      8.4442      9.3464      10.524      11.927      13.452    
  14.954      16.157      16.280      16.255      15.839      15.465      15.465      15.839      16.255      16.280    
  15.667      14.460      12.914      11.305      9.8059      8.5137      7.4969      6.7623      6.2899      6.0591    
  6.0591      6.2899      6.7623      7.4969      8.5136      9.8058      11.305      12.914      14.460      15.667    
  16.280      16.583      16.584      16.545      16.584      16.583      16.280      15.475      14.169      12.548    
  10.859      9.2785      7.8953      6.7797      5.9486      5.3823      5.0546      4.9474      5.0546      5.3823    
  5.9486      6.7797      7.8952      9.2785      10.859      12.548      14.169      15.475      16.751      17.390    
  17.665      17.665      17.390      16.751      15.667      14.169      12.417      10.623      8.9521      7.4846    
  6.2809      5.3622      4.7100      4.2950      4.0936      4.0936      4.2950      4.7100      5.3622      6.2809    
  7.4846      8.9522      10.623      12.417      14.169      15.667      17.460      18.262      18.531      18.262    
  17.459      16.157      14.460      12.548      10.623      8.8412      7.2788      5.9865      4.9832      4.2496    
  3.7538      3.4679      3.3745      3.4679      3.7538      4.2496      4.9832      5.9866      7.2788      8.8412    
  10.623      12.548      14.460      16.157      18.098      18.813      18.813      18.098      16.755      14.954    
  12.914      10.859      8.9521      7.2788      5.8891      4.7970      3.9810      3.4065      3.0414      2.8642    
  2.8642      3.0414      3.4065      3.9811      4.7971      5.8891      7.2788      8.9521      10.859      12.914    
  14.954      16.755      18.460      18.874      18.460      17.283      15.530      13.452      11.305      9.2785    
  7.4846      5.9865      4.7970      3.8927      3.2366      2.7933      2.5370      2.4532      2.5370      2.7932    
  3.2366      3.8927      4.7970      5.9865      7.4846      9.2784      11.305      13.452      15.530      17.283    
  18.510      18.510      17.658      16.105      14.102      11.927      9.8059      7.8953      6.2809      4.9832    
  3.9810      3.2366      2.7117      2.3771      2.2142      2.2142      2.3771      2.7117      3.2366      3.9811    
  4.9832      6.2809      7.8952      9.8058      11.927      14.102      16.105      17.658      18.322      17.882    
  16.644      14.822      12.694      10.524      8.5137      6.7797      5.3622      4.2496      3.4065      2.7933    
  2.3771      2.1357      2.0565      2.1357      2.3771      2.7933      3.4065      4.2496      5.3622      6.7797    
  8.5136      10.524      12.694      14.822      16.644      17.882      17.962      17.113      15.567      13.578    
  11.425      9.3464      7.4969      5.9486      4.7100      3.7538      3.0414      2.5370      2.2142      2.0565    
  2.0565      2.2142      2.5370      3.0414      3.7538      4.7100      5.9486      7.4969      9.3465      11.425    
  13.578      15.567      17.113      17.962      17.461      16.274      14.526      12.480      10.388      8.4442    
  6.7623      5.3823      4.2950      3.4679      2.8642      2.4532      2.2142      2.1357      2.2142      2.4532    
  2.8642      3.4679      4.2950      5.3823      6.7624      8.4443      10.388      12.480      14.526      16.274    
  17.461      17.882      16.877      15.450      13.604      11.588      9.6094      7.8157      6.2899      5.0546    
  4.0936      3.3745      2.8642      2.5370      2.3771      2.3771      2.5370      2.8642      3.3745      4.0936    
  5.0546      6.2899      7.8157      9.6094      11.588      13.604      15.450      16.877      17.658      17.658    
  16.247      14.698      12.853      10.928      9.0903      7.4455      6.0591      4.9474      4.0936      3.4679    
  3.0414      2.7932      2.7117      2.7933      3.0414      3.4679      4.0936      4.9473      6.0591      7.4455    
  9.0903      10.928      12.853      14.698      16.247      17.283      17.648      17.283      15.611      14.069    
  12.311      10.519      8.8296      7.3232      6.0591      5.0546      4.2950      3.7538      3.4065      3.2366    
  3.2366      3.4065      3.7538      4.2950      5.0546      6.0591      7.3232      8.8296      10.519      12.311    
  14.069      15.611      16.755      17.363      17.363      16.755      15.064      13.639      12.024      10.380    
  8.8296      7.4455      6.2899      5.3823      4.7100      4.2496      3.9811      3.8927      3.9811      4.2496    
  4.7100      5.3823      6.2899      7.4455      8.8296      10.380      12.024      13.638      15.064      16.157    
  16.833      17.059      16.833      16.157      14.739      13.484      12.024      10.519      9.0903      7.8157    
  6.7623      5.9486      5.3622      4.9832      4.7971      4.7970      4.9832      5.3622      5.9486      6.7624    
  7.8157      9.0903      10.519      12.024      13.484      14.739      15.667      16.232      16.485      16.485    
  16.232      15.667      14.739      13.638      12.311      10.928      9.6094      8.4442      7.4969      6.7797    
  6.2809      5.9866      5.8891      5.9865      6.2809      6.7797      7.4969      8.4443      9.6094      10.928    
  12.311      13.638      14.739      15.475      15.830      15.927      15.933      15.927      15.830      15.475    
  15.064      14.069      12.853      11.588      10.388      9.3464      8.5136      7.8952      7.4846      7.2788    
  7.2788      7.4846      7.8952      8.5136      9.3465      10.388      11.588      12.853      14.069      15.064    
  15.667      15.830      15.696      15.525      15.525      15.696      15.830      15.667      15.611      14.698    
  13.604      12.480      11.425      10.524      9.8058      9.2785      8.9522      8.8412      8.9521      9.2784    
  9.8058      10.524      11.425      12.480      13.604      14.698      15.611      16.157      16.232      15.927    
  15.525      15.345      15.525      15.927      16.232      16.157      16.247      15.450      14.526      13.578    
  12.694      11.927      11.305      10.859      10.623      10.623      10.859      11.305      11.927      12.694    
  13.578      14.526      15.450      16.247      16.755      16.833      16.485      15.933      15.525      15.525    
  15.933      16.485      16.833      16.755      16.877      16.274      15.567      14.822      14.102      13.452    
  12.914      12.548      12.417      12.548      12.914      13.452      14.102      14.822      15.567      16.274    
  16.877      17.283      17.363      17.059      16.485      15.927      15.696      15.927      16.485      17.059    
  17.363      17.283      17.461      17.113      16.644      16.105      15.530      14.954      14.460      14.169    
  14.169      14.460      14.954      15.530      16.105      16.644      17.113      17.461      17.658      17.648    
  17.363      16.833      16.232      15.830      15.830      16.232      16.833      17.363      17.647      17.658    
  17.962      17.882      17.658      17.283      16.755      16.157      15.667      15.475      15.667      16.157    
  16.755      17.283      17.658      17.882      17.962      17.882      17.658      17.283      16.755      16.157    
  15.667      15.475      15.667      16.157      16.755      17.283      17.658      17.882      18.083      18.460    
  18.438      17.957      17.168      16.430      16.129      16.430      17.168      17.957      18.438      18.460    
  18.083      17.461      16.709      15.894      15.098      14.373      13.768      13.355      13.207      13.355    
  13.768      14.373      15.098      15.894      16.709      17.461      18.460      18.813      18.531      17.665    
  16.584      15.839      15.839      16.584      17.665      18.531      18.813      18.460      17.658      16.644    
  15.567      14.526      13.604      12.853      12.311      12.024      12.024      12.311      12.853      13.604    
  14.526      15.567      16.644      17.658      18.438      18.531      17.814      16.553      15.357      14.866    
  15.356      16.552      17.814      18.531      18.438      17.647      16.461      15.156      13.885      12.758    
  11.840      11.161      10.740      10.597      10.740      11.161      11.840      12.758      13.885      15.156    
  16.461      17.647      17.957      17.665      16.553      15.130      14.143      14.143      15.130      16.552    
  17.665      17.957      17.363      16.156      14.696      13.240      11.918      10.830      10.011      9.4647    
  9.1901      9.1901      9.4647      10.011      10.830      11.918      13.240      14.696      16.156      17.363    
  17.168      16.584      15.357      14.143      13.639      14.143      15.356      16.584      17.168      16.833    
  15.727      14.214      12.630      11.159      9.9110      8.9500      8.2795      7.8847      7.7543      7.8847    
  8.2795      8.9500      9.9110      11.159      12.630      14.214      15.727      16.833      16.430      15.839    
  14.866      14.143      14.143      14.866      15.839      16.430      16.232      15.238      13.739      12.085    
  10.514      9.1414      8.0509      7.2610      6.7531      6.5053      6.5053      6.7531      7.2610      8.0509    
  9.1414      10.514      12.085      13.739      15.238      16.232      16.129      15.839      15.356      15.130    
  15.356      15.839      16.129      15.830      14.837      13.336      11.637      9.9957      8.5354      7.3394    
  6.4432      5.8325      5.4798      5.3647      5.4798      5.8325      6.4432      7.3393      8.5354      9.9957    
  11.637      13.336      14.837      15.830      16.430      16.584      16.552      16.552      16.584      16.430    
  15.830      14.680      13.098      11.335      9.6244      8.0939      6.8129      5.8258      5.1241      4.6785    
  4.4628      4.4628      4.6785      5.1241      5.8258      6.8128      8.0939      9.6244      11.335      13.098    
  14.680      15.830      17.168      17.665      17.814      17.665      17.168      16.232      14.837      13.098    
  11.227      9.4285      7.8220      6.4635      5.3956      4.6121      4.0836      3.7798      3.6807      3.7798    
  4.0836      4.6121      5.3956      6.4635      7.8220      9.4285      11.227      13.098      14.837      16.232    
  17.957      18.531      18.531      17.957      16.833      15.238      13.336      11.335      9.4285      7.7296    
  6.2884      5.1408      4.2797      3.6740      3.2906      3.1050      3.1050      3.2906      3.6740      4.2797    
  5.1409      6.2885      7.7296      9.4285      11.335      13.336      15.239      16.833      18.438      18.813    
  18.438      17.363      15.727      13.739      11.637      9.6244      7.8220      6.2884      5.0563      4.1157    
  3.4339      2.9749      2.7106      2.6243      2.7106      2.9749      3.4339      4.1157      5.0564      6.2884    
  7.8220      9.6244      11.637      13.739      15.727      17.363      18.460      18.460      17.647      16.156    
  14.214      12.085      9.9957      8.0939      6.4635      5.1408      4.1157      3.3547      2.8199      2.4801    
  2.3151      2.3151      2.4801      2.8199      3.3547      4.1157      5.1408      6.4635      8.0939      9.9956    
  12.085      14.214      16.156      17.648      18.083      17.658      16.461      14.696      12.630      10.514    
  8.5354      6.8129      5.3956      4.2797      3.4339      2.8199      2.4043      2.1637      2.0848      2.1636    
  2.4043      2.8199      3.4339      4.2797      5.3956      6.8128      8.5354      10.514      12.630      14.696    
  16.461      17.658      17.461      16.644      15.156      13.240      11.159      9.1414      7.3394      5.8258    
  4.6121      3.6740      2.9749      2.4801      2.1637      2.0092      2.0092      2.1636      2.4801      2.9749    
  3.6740      4.6121      5.8258      7.3394      9.1414      11.159      13.240      15.156      16.644      17.461    
  16.709      15.567      13.885      11.918      9.9110      8.0509      6.4432      5.1241      4.0836      3.2906    
  2.7106      2.3151      2.0848      2.0092      2.0848      2.3151      2.7106      3.2906      4.0836      5.1241    
  6.4432      8.0509      9.9111      11.918      13.885      15.567      16.708      17.113      15.894      14.526    
  12.758      10.830      8.9500      7.2610      5.8325      4.6785      3.7798      3.1050      2.6243      2.3151    
  2.1636      2.1636      2.3151      2.6243      3.1050      3.7798      4.6785      5.8325      7.2610      8.9501    
  10.830      12.758      14.526      15.894      16.644      16.644      15.098      13.604      11.840      10.011    
  8.2795      6.7531      5.4798      4.4628      3.6807      3.1050      2.7106      2.4801      2.4043      2.4801    
  2.7106      3.1050      3.6807      4.4628      5.4798      6.7531      8.2796      10.011      11.840      13.604    
  15.098      16.105      16.461      16.105      14.373      12.853      11.161      9.4647      7.8847      6.5053    
  5.3647      4.4628      3.7798      3.2906      2.9749      2.8199      2.8199      2.9749      3.2906      3.7798    
  4.4628      5.3646      6.5053      7.8847      9.4647      11.161      12.853      14.373      15.530      16.156    
  16.156      15.530      13.768      12.311      10.740      9.1901      7.7543      6.5053      5.4798      4.6785    
  4.0836      3.6740      3.4339      3.3547      3.4339      3.6740      4.0836      4.6785      5.4798      6.5053    
  7.7542      9.1900      10.740      12.311      13.768      14.954      15.727      15.995      15.727      14.954    
  13.355      12.024      10.597      9.1901      7.8847      6.7531      5.8325      5.1241      4.6121      4.2797    
  4.1157      4.1157      4.2797      4.6121      5.1241      5.8325      6.7531      7.8847      9.1900      10.597    
  12.024      13.355      14.460      15.239      15.636      15.636      15.239      14.460      13.207      12.024    
  10.740      9.4647      8.2795      7.2610      6.4432      5.8258      5.3956      5.1409      5.0564      5.1408    
  5.3956      5.8258      6.4432      7.2610      8.2796      9.4647      10.740      12.024      13.207      14.169    
  14.837      15.210      15.327      15.210      14.837      14.169      13.355      12.311      11.161      10.011    
  8.9500      8.0509      7.3393      6.8128      6.4635      6.2885      6.2884      6.4635      6.8128      7.3394    
  8.0509      8.9501      10.011      11.161      12.311      13.355      14.169      14.680      14.920      14.993    
  14.993      14.920      14.680      14.169      13.768      12.853      11.840      10.830      9.9110      9.1414    
  8.5354      8.0939      7.8220      7.7296      7.8220      8.0939      8.5354      9.1414      9.9111      10.830    
  11.840      12.853      13.768      14.460      14.837      14.920      14.850      14.801      14.850      14.920    
  14.837      14.460      14.373      13.604      12.758      11.918      11.159      10.514      9.9957      9.6244    
  9.4285      9.4285      9.6244      9.9956      10.514      11.159      11.918      12.758      13.604      14.373    
  14.954      15.239      15.210      14.993      14.801      14.801      14.993      15.210      15.238      14.954    
  15.098      14.526      13.885      13.240      12.630      12.085      11.637      11.335      11.227      11.335    
  11.637      12.085      12.630      13.240      13.885      14.526      15.098      15.530      15.727      15.636    
  15.327      14.993      14.850      14.993      15.327      15.636      15.727      15.530      15.894      15.567    
  15.156      14.696      14.214      13.739      13.336      13.098      13.098      13.336      13.739      14.214    
  14.696      15.156      15.567      15.894      16.105      16.156      15.995      15.636      15.210      14.920    
  14.920      15.210      15.636      15.995      16.156      16.105      16.709      16.644      16.461      16.156    
  15.727      15.238      14.837      14.680      14.837      15.239      15.727      16.156      16.461      16.644    
  16.708      16.644      16.461      16.156      15.727      15.239      14.837      14.680      14.837      15.238    
  15.727      16.156      16.461      16.644      17.461      17.658      17.647      17.363      16.833      16.232    
  15.830      15.830      16.232      16.833      17.363      17.648      17.658      17.461      17.113      16.644    
  16.105      15.530      14.954      14.460      14.169      14.169      14.460      14.954      15.530      16.105    
  16.644      17.113      17.681      18.098      17.957      17.291      16.414      15.798      15.798      16.414    
  17.291      17.957      18.098      17.681      16.877      15.894      14.863      13.879      13.012      12.307    
  11.800      11.532      11.532      11.800      12.307      13.012      13.879      14.863      15.894      16.877    
  18.098      18.262      17.665      16.545      15.465      15.020      15.465      16.545      17.665      18.262    
  18.098      17.283      16.105      14.822      13.578      12.480      11.588      10.928      10.519      10.380    
  10.519      10.928      11.588      12.480      13.578      14.822      16.105      17.283      17.957      17.665    
  16.553      15.130      14.143      14.143      15.130      16.552      17.665      17.957      17.363      16.156    
  14.696      13.240      11.918      10.830      10.011      9.4647      9.1901      9.1901      9.4647      10.011    
  10.830      11.918      13.240      14.696      16.156      17.363      17.291      16.545      15.130      13.764    
  13.201      13.764      15.130      16.545      17.291      17.059      15.995      14.482      12.878      11.383    