   2   2   0   0
  0.4204385E+01  0.2282527E-09  0.2282527E-09  0.2282527E-09  0.5000000E-15
  1.000000000000000E-004
  CAR 
 unknown system                          
     58.89333759    -14.71693050  301     14.74251221      1.00000000
    -14.717  0.0000E+00  0.0000E+00
    -14.472  0.0000E+00  0.0000E+00
    -14.226  0.0000E+00  0.0000E+00
    -13.981  0.0000E+00  0.0000E+00
    -13.735  0.0000E+00  0.0000E+00
    -13.490  0.0000E+00  0.0000E+00
    -13.245  0.0000E+00  0.0000E+00
    -12.999  0.0000E+00  0.0000E+00
    -12.754  0.0000E+00  0.0000E+00
    -12.509  0.0000E+00  0.0000E+00
    -12.263  0.0000E+00  0.0000E+00
    -12.018  0.0000E+00  0.0000E+00
    -11.773  0.0000E+00  0.0000E+00
    -11.527  0.0000E+00  0.0000E+00
    -11.282  0.6550E-02  0.1948E-03
    -11.036  0.4028E-01  0.7493E-02
    -10.791  0.5987E-01  0.1971E-01
    -10.546  0.7346E-01  0.3651E-01
    -10.300  0.8253E-01  0.5543E-01
    -10.055  0.9455E-01  0.7714E-01
     -9.810  0.1037E+00  0.1017E+00
     -9.564  0.1109E+00  0.1281E+00
     -9.319  0.1181E+00  0.1561E+00
     -9.073  0.1269E+00  0.1862E+00
     -8.828  0.1356E+00  0.2184E+00
     -8.583  0.1406E+00  0.2523E+00
     -8.337  0.1466E+00  0.2875E+00
     -8.092  0.1528E+00  0.3243E+00
     -7.847  0.1595E+00  0.3626E+00
     -7.601  0.1665E+00  0.4026E+00
     -7.356  0.1725E+00  0.4442E+00
     -7.111  0.1775E+00  0.4872E+00
     -6.865  0.1826E+00  0.5313E+00
     -6.620  0.1883E+00  0.5769E+00
     -6.374  0.1941E+00  0.6238E+00
     -6.129  0.2000E+00  0.6721E+00
     -5.884  0.2063E+00  0.7220E+00
     -5.638  0.2118E+00  0.7733E+00
     -5.393  0.2174E+00  0.8260E+00
     -5.148  0.2232E+00  0.8800E+00
     -4.902  0.2299E+00  0.9356E+00
     -4.657  0.2386E+00  0.9930E+00
     -4.411  0.2526E+00  0.1053E+01
     -4.166  0.2738E+00  0.1118E+01
     -3.921  0.3014E+00  0.1188E+01
     -3.675  0.2815E+00  0.1259E+01
     -3.430  0.2827E+00  0.1328E+01
     -3.185  0.2923E+00  0.1399E+01
     -2.939  0.2607E+00  0.1468E+01
     -2.694  0.2323E+00  0.1527E+01
     -2.449  0.2304E+00  0.1584E+01
     -2.203  0.2326E+00  0.1641E+01
     -1.958  0.2380E+00  0.1698E+01
     -1.712  0.2858E+00  0.1765E+01
     -1.467  0.2967E+00  0.1836E+01
     -1.222  0.2940E+00  0.1909E+01
     -0.976  0.2957E+00  0.1981E+01
     -0.731  0.3003E+00  0.2055E+01
     -0.486  0.2635E+00  0.2123E+01
     -0.240  0.2389E+00  0.2185E+01
      0.005  0.2434E+00  0.2244E+01
      0.250  0.2613E+00  0.2305E+01
      0.496  0.3262E+00  0.2375E+01
      0.741  0.4838E+00  0.2477E+01
      0.987  0.4837E+00  0.2597E+01
      1.232  0.4247E+00  0.2711E+01
      1.477  0.3356E+00  0.2802E+01
      1.723  0.2960E+00  0.2879E+01
      1.968  0.2913E+00  0.2952E+01
      2.213  0.2634E+00  0.3019E+01
      2.459  0.2746E+00  0.3085E+01
      2.704  0.2991E+00  0.3155E+01
      2.950  0.3662E+00  0.3235E+01
      3.195  0.4733E+00  0.3338E+01
      3.440  0.4217E+00  0.3443E+01
      3.686  0.3977E+00  0.3543E+01
      3.931  0.4258E+00  0.3642E+01
      4.176  0.4115E+00  0.3748E+01
      4.422  0.4263E+00  0.3850E+01
      4.667  0.4495E+00  0.3958E+01
      4.912  0.4506E+00  0.4069E+01
      5.158  0.4494E+00  0.4179E+01
      5.403  0.4562E+00  0.4290E+01
      5.649  0.5159E+00  0.4412E+01
      5.894  0.5705E+00  0.4543E+01
      6.139  0.6059E+00  0.4691E+01
      6.385  0.6712E+00  0.4848E+01
      6.630  0.6193E+00  0.5006E+01
      6.875  0.6105E+00  0.5157E+01
      7.121  0.6090E+00  0.5306E+01
      7.366  0.6084E+00  0.5456E+01
      7.612  0.5959E+00  0.5604E+01
      7.857  0.5806E+00  0.5748E+01
      8.102  0.5689E+00  0.5889E+01
      8.348  0.5767E+00  0.6029E+01
      8.593  0.5733E+00  0.6170E+01
      8.838  0.5648E+00  0.6310E+01
      9.084  0.5514E+00  0.6447E+01
      9.329  0.5339E+00  0.6580E+01
      9.574  0.5197E+00  0.6710E+01
      9.820  0.5120E+00  0.6836E+01
     10.065  0.5140E+00  0.6961E+01
     10.311  0.5152E+00  0.7090E+01
     10.556  0.4917E+00  0.7213E+01
     10.801  0.4626E+00  0.7330E+01
     11.047  0.3577E+00  0.7430E+01
     11.292  0.3172E+00  0.7513E+01
     11.537  0.2723E+00  0.7586E+01
     11.783  0.2464E+00  0.7649E+01
     12.028  0.2220E+00  0.7706E+01
     12.274  0.2036E+00  0.7758E+01
     12.519  0.1808E+00  0.7805E+01
     12.764  0.1606E+00  0.7847E+01
     13.010  0.1416E+00  0.7884E+01
     13.255  0.1200E+00  0.7916E+01
     13.500  0.1005E+00  0.7944E+01
     13.746  0.7832E-01  0.7965E+01
     13.991  0.6725E-01  0.7983E+01
     14.236  0.1912E-01  0.7998E+01
     14.482  0.1405E-02  0.8000E+01
     14.727  0.0000E+00  0.8000E+01
     14.973  0.0000E+00  0.8000E+01
     15.218  0.0000E+00  0.8000E+01
     15.463  0.0000E+00  0.8000E+01
     15.709  0.0000E+00  0.8000E+01
     15.954  0.0000E+00  0.8000E+01
     16.199  0.0000E+00  0.8000E+01
     16.445  0.0000E+00  0.8000E+01
     16.690  0.0000E+00  0.8000E+01
     16.935  0.0000E+00  0.8000E+01
     17.181  0.0000E+00  0.8000E+01
     17.426  0.0000E+00  0.8000E+01
     17.672  0.0000E+00  0.8000E+01
     17.917  0.0000E+00  0.8000E+01
     18.162  0.0000E+00  0.8000E+01
     18.408  0.0000E+00  0.8000E+01
     18.653  0.0000E+00  0.8000E+01
     18.898  0.0000E+00  0.8000E+01
     19.144  0.0000E+00  0.8000E+01
     19.389  0.0000E+00  0.8000E+01
     19.635  0.2489E-01  0.8002E+01
     19.880  0.8429E-01  0.8015E+01
     20.125  0.1409E+00  0.8043E+01
     20.371  0.1888E+00  0.8083E+01
     20.616  0.2351E+00  0.8136E+01
     20.861  0.2861E+00  0.8199E+01
     21.107  0.3534E+00  0.8277E+01
     21.352  0.4141E+00  0.8372E+01
     21.597  0.4204E+00  0.8476E+01
     21.843  0.4325E+00  0.8579E+01
     22.088  0.4604E+00  0.8689E+01
     22.334  0.4897E+00  0.8805E+01
     22.579  0.5253E+00  0.8930E+01
     22.824  0.5699E+00  0.9064E+01
     23.070  0.6342E+00  0.9211E+01
     23.315  0.7496E+00  0.9381E+01
     23.560  0.8491E+00  0.9577E+01
     23.806  0.9351E+00  0.9794E+01
     24.051  0.8462E+00  0.1001E+02
     24.297  0.5991E+00  0.1020E+02
     24.542  0.4649E+00  0.1033E+02
     24.787  0.3889E+00  0.1043E+02
     25.033  0.4856E+00  0.1053E+02
     25.278  0.5590E+00  0.1066E+02
     25.523  0.5818E+00  0.1080E+02
     25.769  0.6431E+00  0.1096E+02
     26.014  0.6423E+00  0.1113E+02
     26.259  0.6332E+00  0.1129E+02
     26.505  0.6175E+00  0.1144E+02
     26.750  0.6202E+00  0.1159E+02
     26.996  0.6575E+00  0.1175E+02
     27.241  0.5969E+00  0.1191E+02
     27.486  0.4591E+00  0.1204E+02
     27.732  0.4091E+00  0.1214E+02
     27.977  0.3785E+00  0.1224E+02
     28.222  0.3672E+00  0.1233E+02
     28.468  0.3159E+00  0.1242E+02
     28.713  0.2990E+00  0.1249E+02
     28.958  0.2841E+00  0.1256E+02
     29.204  0.3247E+00  0.1264E+02
     29.449  0.3382E+00  0.1272E+02
     29.695  0.3338E+00  0.1281E+02
     29.940  0.3332E+00  0.1289E+02
     30.185  0.3549E+00  0.1297E+02
     30.431  0.3978E+00  0.1306E+02
     30.676  0.4543E+00  0.1317E+02
     30.921  0.5363E+00  0.1329E+02
     31.167  0.8701E+00  0.1344E+02
     31.412  0.6510E+00  0.1362E+02
     31.658  0.7239E+00  0.1379E+02
     31.903  0.7823E+00  0.1397E+02
     32.148  0.7595E+00  0.1417E+02
     32.394  0.5969E+00  0.1434E+02
     32.639  0.6460E+00  0.1448E+02
     32.884  0.8400E+00  0.1466E+02
     33.130  0.1038E+01  0.1490E+02
     33.375  0.8430E+00  0.1513E+02
     33.620  0.6936E+00  0.1532E+02
     33.866  0.4712E+00  0.1546E+02
     34.111  0.3803E+00  0.1557E+02
     34.357  0.3292E+00  0.1565E+02
     34.602  0.2846E+00  0.1573E+02
     34.847  0.2546E+00  0.1579E+02
     35.093  0.2034E+00  0.1585E+02
     35.338  0.1799E+00  0.1590E+02
     35.583  0.2105E+00  0.1594E+02
     35.829  0.2132E+00  0.1600E+02
     36.074  0.1907E+00  0.1605E+02
     36.320  0.1831E+00  0.1610E+02
     36.565  0.1947E+00  0.1614E+02
     36.810  0.2078E+00  0.1619E+02
     37.056  0.2237E+00  0.1625E+02
     37.301  0.2495E+00  0.1630E+02
     37.546  0.2807E+00  0.1637E+02
     37.792  0.3129E+00  0.1644E+02
     38.037  0.3453E+00  0.1652E+02
     38.282  0.3798E+00  0.1661E+02
     38.528  0.4422E+00  0.1671E+02
     38.773  0.5242E+00  0.1683E+02
     39.019  0.6241E+00  0.1697E+02
     39.264  0.6660E+00  0.1713E+02
     39.509  0.6717E+00  0.1729E+02
     39.755  0.6723E+00  0.1745E+02
     40.000  0.7775E+00  0.1763E+02
     40.245  0.6872E+00  0.1782E+02
     40.491  0.5815E+00  0.1797E+02
     40.736  0.5324E+00  0.1811E+02
     40.982  0.4841E+00  0.1823E+02
     41.227  0.4398E+00  0.1835E+02
     41.472  0.4152E+00  0.1845E+02
     41.718  0.4068E+00  0.1855E+02
     41.963  0.4058E+00  0.1865E+02
     42.208  0.4164E+00  0.1875E+02
     42.454  0.4625E+00  0.1886E+02
     42.699  0.5204E+00  0.1898E+02
     42.944  0.6027E+00  0.1912E+02
     43.190  0.7720E+00  0.1929E+02
     43.435  0.6814E+00  0.1947E+02
     43.681  0.8133E+00  0.1965E+02
     43.926  0.7519E+00  0.1985E+02
     44.171  0.6731E+00  0.2002E+02
     44.417  0.5159E+00  0.2017E+02
     44.662  0.3457E+00  0.2028E+02
     44.907  0.2516E+00  0.2035E+02
     45.153  0.2154E+00  0.2041E+02
     45.398  0.4696E+00  0.2048E+02
     45.643  0.6260E+00  0.2061E+02
     45.889  0.1002E+01  0.2083E+02
     46.134  0.8427E+00  0.2109E+02
     46.380  0.6956E+00  0.2127E+02
     46.625  0.6385E+00  0.2144E+02
     46.870  0.5130E+00  0.2158E+02
     47.116  0.4255E+00  0.2169E+02
     47.361  0.4127E+00  0.2179E+02
     47.606  0.3986E+00  0.2189E+02
     47.852  0.3862E+00  0.2199E+02
     48.097  0.3739E+00  0.2208E+02
     48.343  0.3610E+00  0.2217E+02
     48.588  0.3470E+00  0.2226E+02
     48.833  0.3323E+00  0.2234E+02
     49.079  0.3264E+00  0.2242E+02
     49.324  0.3069E+00  0.2250E+02
     49.569  0.2899E+00  0.2257E+02
     49.815  0.2749E+00  0.2264E+02
     50.060  0.2616E+00  0.2271E+02
     50.305  0.2504E+00  0.2277E+02
     50.551  0.2414E+00  0.2283E+02
     50.796  0.2454E+00  0.2289E+02
     51.042  0.2709E+00  0.2296E+02
     51.287  0.2758E+00  0.2302E+02
     51.532  0.2906E+00  0.2309E+02
     51.778  0.3262E+00  0.2317E+02
     52.023  0.4449E+00  0.2326E+02
     52.268  0.5000E+00  0.2337E+02
     52.514  0.4023E+00  0.2348E+02
     52.759  0.4050E+00  0.2358E+02
     53.005  0.3775E+00  0.2367E+02
     53.250  0.3096E+00  0.2376E+02
     53.495  0.2642E+00  0.2383E+02
     53.741  0.1947E+00  0.2389E+02
     53.986  0.1498E+00  0.2393E+02
     54.231  0.1240E+00  0.2396E+02
     54.477  0.4987E-01  0.2398E+02
     54.722  0.2853E-01  0.2399E+02
     54.967  0.1752E-01  0.2400E+02
     55.213  0.5831E-02  0.2400E+02
     55.458  0.4147E-03  0.2400E+02
     55.704  0.0000E+00  0.2400E+02
     55.949  0.0000E+00  0.2400E+02
     56.194  0.0000E+00  0.2400E+02
     56.440  0.0000E+00  0.2400E+02
     56.685  0.0000E+00  0.2400E+02
     56.930  0.0000E+00  0.2400E+02
     57.176  0.0000E+00  0.2400E+02
     57.421  0.0000E+00  0.2400E+02
     57.666  0.0000E+00  0.2400E+02
     57.912  0.0000E+00  0.2400E+02
     58.157  0.0000E+00  0.2400E+02
     58.403  0.0000E+00  0.2400E+02
     58.648  0.0000E+00  0.2400E+02
     58.893  0.0000E+00  0.2400E+02
