    2    2    1    1
  0.4204385E+01  0.2282527E-09  0.2282527E-09  0.2282527E-09  0.5000000E-15
  1.000000000000000E-004
  CAR 
 unknown system                          
    8   72   12
 
  0.0000000E+00  0.0000000E+00  0.0000000E+00  0.5787037E-03
   1      -11.371009
   2       14.573054
   3       14.573054
   4       14.573054
   5       20.997702
   6       20.997702
   7       20.997702
   8       35.355041
   9       38.228857
  10       44.701361
  11       44.701361
  12       45.751350
 
  0.8333333E-01  0.0000000E+00  0.0000000E+00  0.4629630E-02
   1      -11.137961
   2       12.984574
   3       14.123647
   4       14.123648
   5       21.583169
   6       21.583170
   7       22.129446
   8       35.150454
   9       38.571622
  10       41.943539
  11       41.943539
  12       45.579142
 
  0.1666667E+00  0.0000000E+00  0.0000000E+00  0.4629630E-02
   1      -10.439387
   2        9.833120
   3       13.182624
   4       13.182624
   5       22.802956
   6       22.802956
   7       24.011614
   8       34.632701
   9       39.329197
  10       39.964968
  11       39.964968
  12       45.522031
 
  0.2500000E+00  0.0000000E+00  0.0000000E+00  0.4629630E-02
   1       -9.280869
   2        6.356725
   3       12.242744
   4       12.242744
   5       23.830907
   6       23.830907
   7       25.635041
   8       33.987518
   9       39.599090
  10       39.599090
  11       40.059125
  12       45.857803
 
  0.3333333E+00  0.0000000E+00  0.0000000E+00  0.4629630E-02
   1       -7.673231
   2        2.946472
   3       11.511395
   4       11.511395
   5       24.269733
   6       24.269734
   7       26.846635
   8       33.396871
   9       40.675483
  10       40.977746
  11       40.977747
  12       46.066181
 
  0.4166667E+00  0.0000000E+00  0.0000000E+00  0.4629630E-02
   1       -5.643226
   2       -0.213484
   3       11.058910
   4       11.058910
   5       24.296865
   6       24.296866
   7       27.607073
   8       32.994056
   9       41.226233
  10       43.510412
  11       43.510412
  12       45.798332
 
  0.5000000E+00  0.0000000E+00  0.0000000E+00  0.2314815E-02
   1       -3.637628
   2       -2.602500
   3       10.906650
   4       10.906650
   5       24.259523
   6       24.259524
   7       27.868681
   8       32.855127
   9       41.502380
  10       45.220205
  11       45.220206
  12       45.564747
 
  0.8333333E-01  0.8333333E-01  0.0000000E+00  0.3472222E-02
   1      -11.060170
   2       13.285757
   3       13.285757
   4       13.953732
   5       20.805836
   6       22.588730
   7       22.588730
   8       34.617339
   9       38.708592
  10       40.260138
  11       45.098864
  12       46.496491
 
  0.1666667E+00  0.8333333E-01  0.0000000E+00  0.1388889E-01
   1      -10.516855
   2       10.887719
   3       12.209113
   4       13.477473
   5       21.236602
   6       24.027459
   7       24.242328
   8       33.238587
   9       39.304607
  10       39.501486
  11       43.202739
  12       46.570138
 
  0.2500000E+00  0.8333333E-01  0.0000000E+00  0.1388889E-01
   1       -9.511869
   2        7.594549
   3       11.275675
   4       12.600607
   5       22.324474
   6       25.201843
   7       25.842613
   8       32.237329
   9       39.149730
  10       40.233661
  11       42.250825
  12       46.452916
 
  0.3333333E+00  0.8333333E-01  0.0000000E+00  0.1388889E-01
   1       -8.054613
   2        4.201514
   3       10.639408
   4       11.622263
   5       23.170148
   6       25.675808
   7       27.083257
   8       32.211319
   9       39.240885
  10       41.191852
  11       42.992717
  12       46.468001
 
  0.4166667E+00  0.8333333E-01  0.0000000E+00  0.1388889E-01
   1       -6.164225
   2        0.975729
   3       10.352313
   4       10.778565
   5       23.535303
   6       25.533659
   7       27.976250
   8       32.751755
   9       39.707279
  10       42.702831
  11       44.851605
  12       46.133855
 
  0.5000000E+00  0.8333333E-01  0.0000000E+00  0.1388889E-01
   1       -3.941655
   2       -1.871721
   3       10.177273
   4       10.419870
   5       23.784549
   6       25.157077
   7       28.418371
   8       33.175262
   9       40.273189
  10       44.848569
  11       45.362651
  12       45.698538
 
 -0.4166667E+00  0.8333333E-01  0.0000000E+00  0.1388889E-01
   1       -4.695441
   2       -0.990521
   3        9.877490
   4       10.821470
   5       24.178588
   6       24.787572
   7       28.310421
   8       33.306241
   9       40.430537
  10       42.681924
  11       45.693150
  12       46.259417
 
 -0.3333333E+00  0.8333333E-01  0.0000000E+00  0.1388889E-01
   1       -6.840927
   2        2.027564
   3        9.914925
   4       11.515693
   5       24.396516
   6       24.677240
   7       27.639137
   8       33.232396
   9       39.655580
  10       40.268964
  11       44.785225
  12       46.566913
 
 -0.2500000E+00  0.8333333E-01  0.0000000E+00  0.1388889E-01
   1       -8.589927
   2        5.334982
   3       10.304640
   4       12.431211
   5       23.733803
   6       24.937843
   7       26.469902
   8       33.199076
   9       37.800065
  10       40.095744
  11       43.218120
  12       46.864292
 
 -0.1666667E+00  0.8333333E-01  0.0000000E+00  0.1388889E-01
   1       -9.897868
   2        8.743943
   3       11.034573
   4       13.424000
   5       22.667655
   6       24.406065
   7       24.983951
   8       33.636085
   9       37.662724
  10       39.720985
  11       42.375169
  12       47.107612
 
 -0.8333333E-01  0.8333333E-01  0.0000000E+00  0.6944444E-02
   1      -10.749653
   2       11.782634
   3       12.172703
   4       14.163003
   5       21.667691
   6       23.000083
   7       23.422365
   8       34.541081
   9       39.053192
  10       39.166774
  11       42.346994
  12       47.288001
 
  0.1666667E+00  0.1666667E+00  0.0000000E+00  0.3472222E-02
   1      -10.129383
   2       11.056566
   3       11.056566
   4       12.225508
   5       20.342042
   6       25.703736
   7       25.703737
   8       30.655865
   9       39.971038
  10       40.118623
  11       46.291345
  12       48.716581
 
  0.2500000E+00  0.1666667E+00  0.0000000E+00  0.1388889E-01
   1       -9.280143
   2        8.739817
   3       10.078386
   4       11.457531
   5       20.711897
   6       27.190811
   7       27.227438
   8       28.975799
   9       40.570999
  10       40.896419
  11       45.555274
  12       48.886361
 
  0.3333333E+00  0.1666667E+00  0.0000000E+00  0.1388889E-01
   1       -7.977618
   2        5.636371
   3        9.428682
   4       10.434586
   5       21.684651
   6       27.717627
   7       27.970568
   8       29.458893
   9       40.517968
  10       41.971492
  11       45.615119
  12       48.325256
 
  0.4166667E+00  0.1666667E+00  0.0000000E+00  0.1388889E-01
   1       -6.238288
   2        2.486087
   3        9.166401
   4        9.316610
   5       22.299842
   6       27.949743
   7       28.711682
   8       30.718264
   9       39.823688
  10       43.381611
  11       46.630489
  12       47.679567
 
  0.5000000E+00  0.1666667E+00  0.0000000E+00  0.1388889E-01
   1       -4.115373
   2       -0.441532
   3        8.362341
   4        9.303159
   5       22.659799
   6       27.455695
   7       29.845307
   8       32.301527
   9       38.790788
  10       44.967268
  11       45.841930
  12       47.242521
 
 -0.4166667E+00  0.1666667E+00  0.0000000E+00  0.1388889E-01
   1       -3.391382
   2       -1.273171
   3        7.702600
   4        9.818654
   5       23.182021
   6       26.799187
   7       30.089448
   8       33.790019
   9       38.079521
  10       42.458437
  11       45.796002
  12       48.124099
 
 -0.3333333E+00  0.1666667E+00  0.0000000E+00  0.1388889E-01
   1       -5.572992
   2        1.513740
   3        7.404917
   4       10.659228
   5       23.968467
   6       26.025541
   7       29.492160
   8       33.705580
   9       38.726876
  10       39.127138
  11       45.853639
  12       49.549393
 
 -0.2500000E+00  0.1666667E+00  0.0000000E+00  0.1388889E-01
   1       -7.447629
   2        4.653038
   3        7.506521
   4       11.718373
   5       24.852932
   6       24.970615
   7       28.154727
   8       32.977041
   9       37.017431
  10       39.728274
  11       45.171460
  12       50.620070
 
 -0.1666667E+00  0.1666667E+00  0.0000000E+00  0.6944444E-02
   1       -8.896955
   2        7.661778
   3        8.237882
   4       12.780615
   5       23.646951
   6       25.322528
   7       26.380920
   8       32.806094
   9       36.571022
  10       40.053660
  11       43.965259
  12       51.565353
 
  0.2500000E+00  0.2500000E+00  0.0000000E+00  0.3472222E-02
   1       -8.588382
   2        9.031084
   3        9.031084
   4        9.619332
   5       19.827130
   6       26.330250
   7       29.133690
   8       29.133690
   9       41.564675
  10       41.775758
  11       48.278671
  12       52.252567
 
  0.3333333E+00  0.2500000E+00  0.0000000E+00  0.1388889E-01
   1       -7.442837
   2        6.849986
   3        8.309995
   4        8.655887
   5       20.230853
   6       25.091681
   7       30.452697
   8       30.739380
   9       41.973817
  10       42.646990
  11       48.608642
  12       52.212522
 
  0.4166667E+00  0.2500000E+00  0.0000000E+00  0.1388889E-01
   1       -5.860001
   2        4.093220
   3        7.376425
   4        7.988340
   5       21.044363
   6       25.664537
   7       30.832280
   8       31.953647
   9       41.267718
  10       43.695151
  11       48.781556
  12       51.234368
 
  0.5000000E+00  0.2500000E+00  0.0000000E+00  0.1388889E-01
   1       -3.880259
   2        1.304599
   3        6.123812
   4        8.087944
   5       21.485132
   6       28.073885
   7       30.443935
   8       32.688374
   9       39.490993
  10       44.802589
  11       46.792531
  12       50.709876
 
 -0.4166667E+00  0.2500000E+00  0.0000000E+00  0.1388889E-01
   1       -2.069611
   2       -0.766662
   3        5.165193
   4        8.596255
   5       21.992116
   6       29.611330
   7       31.234280
   8       32.961019
   9       37.161948
  10       42.979337
  11       45.650510
  12       51.199356
 
 -0.3333333E+00  0.2500000E+00  0.0000000E+00  0.1388889E-01
   1       -3.906246
   2        1.433516
   3        4.601110
   4        9.463966
   5       22.798873
   6       28.423779
   7       32.093955
   8       34.176454
   9       35.711112
  10       39.585662
  11       46.053463
  12       52.481895
 
 -0.2500000E+00  0.2500000E+00  0.0000000E+00  0.6944444E-02
   1       -5.871852
   2        4.131787
   3        4.703363
   4       10.581655
   5       23.858250
   6       26.793987
   7       30.350157
   8       33.464867
   9       37.525511
  10       38.073462
  11       45.909389
  12       53.751832
 
  0.3333333E+00  0.3333333E+00  0.0000000E+00  0.3472222E-02
   1       -6.456410
   2        6.380514
   3        7.495241
   4        7.495241
   5       19.476428
   6       23.124891
   7       32.472391
   8       32.472392
   9       42.998566
  10       43.204923
  11       51.060138
  12       55.547416
 
  0.4166667E+00  0.3333333E+00  0.0000000E+00  0.1388889E-01
   1       -5.033970
   2        4.525702
   3        6.314991
   4        7.076598
   5       19.969901
   6       22.623611
   7       33.498606
   8       33.832528
   9       42.880784
  10       43.817203
  11       51.320101
  12       54.622234
 
  0.5000000E+00  0.3333333E+00  0.0000000E+00  0.1388889E-01
   1       -3.211170
   2        2.628982
   3        4.436199
   4        7.087485
   5       20.565366
   6       24.290986
   7       33.427229
   8       34.672193
   9       41.065854
  10       44.550512
  11       48.407851
  12       54.052732
 
 -0.4166667E+00  0.3333333E+00  0.0000000E+00  0.1388889E-01
   1       -1.184625
   2        0.692040
   3        2.871988
   4        7.524736
   5       21.018134
   6       27.551595
   7       32.470420
   8       35.007228
   9       38.215088
  10       44.487446
  11       45.274481
  12       54.320396
 
 -0.3333333E+00  0.3333333E+00  0.0000000E+00  0.6944444E-02
   1       -1.945459
   2        1.514917
   3        2.203174
   4        8.349012
   5       21.753524
   6       30.760281
   7       31.402064
   8       34.924006
   9       35.126604
  10       41.341475
  11       45.828692
  12       54.381667
 
  0.4166667E+00  0.4166667E+00  0.0000000E+00  0.3472222E-02
   1       -3.774839
   2        2.847413
   3        6.547155
   4        6.547155
   5       19.459413
   6       21.073251
   7       35.254977
   8       35.254977
   9       43.924704
  10       44.020911
  11       53.810466
  12       53.812329
 
  0.5000000E+00  0.4166667E+00  0.0000000E+00  0.1388889E-01
   1       -2.115761
   2        1.183281
   3        5.491657
   4        6.446644
   5       20.002739
   6       21.267401
   7       35.643134
   8       36.019088
   9       43.060939
  10       44.326252
  11       50.759094
  12       53.610737
 
 -0.4166667E+00  0.4166667E+00  0.0000000E+00  0.6944444E-02
   1       -0.242737
   2       -0.085416
   3        3.551997
   4        6.781905
   5       20.386237
   6       23.863213
   7       34.648581
   8       36.038806
   9       40.547923
  10       44.794937
  11       47.196813
  12       54.722216
 
  0.5000000E+00  0.5000000E+00  0.0000000E+00  0.1736111E-02
   1       -0.623717
   2       -0.623717
   3        6.227278
   4        6.227278
   5       19.930963
   6       19.930964
   7       36.461943
   8       36.461943
   9       44.237723
  10       44.237724
  11       52.437630
  12       52.437630
 
  0.2500000E+00  0.1666667E+00  0.8333333E-01  0.1388889E-01
   1       -9.820384
   2        9.651525
   3       10.109537
   4       12.940598
   5       21.577491
   6       25.515742
   7       25.701953
   8       31.490142
   9       39.192617
  10       39.980759
  11       43.537551
  12       49.556054
 
  0.3333333E+00  0.1666667E+00  0.8333333E-01  0.2777778E-01
   1       -8.666487
   2        6.661537
   3        9.154419
   4       12.037838
   5       22.663243
   6       26.066540
   7       27.329619
   8       30.874020
   9       39.008450
  10       40.410028
  11       44.218941
  12       49.008781
 
  0.4166667E+00  0.1666667E+00  0.8333333E-01  0.2777778E-01
   1       -7.067734
   2        3.407165
   3        8.721189
   4       10.980587
   5       23.499972
   6       25.971535
   7       28.635099
   8       31.564766
   9       39.196541
  10       40.884042
  11       45.354833
  12       48.410710
 
  0.5000000E+00  0.1666667E+00  0.8333333E-01  0.2777778E-01
   1       -5.055058
   2        0.330583
   3        8.631270
   4       10.089743
   5       23.709695
   6       25.823921
   7       29.515609
   8       32.846691
   9       38.790167
  10       42.664484
  11       45.920378
  12       47.635480
 
 -0.4166667E+00  0.1666667E+00  0.8333333E-01  0.1388889E-01
   1       -3.111726
   2       -1.977293
   3        8.698189
   4        9.683512
   5       23.707545
   6       25.761860
   7       29.828200
   8       33.573395
   9       38.413968
  10       45.078206
  11       45.255052
  12       46.341053
 
  0.3333333E+00  0.2500000E+00  0.8333333E-01  0.1388889E-01
   1       -8.282793
   2        7.646770
   3        8.177504
   4       10.534556
   5       21.114553
   6       26.819917
   7       28.823811
   8       29.149071
   9       41.153995
  10       41.444659
  11       46.013629
  12       52.354019
 
  0.4166667E+00  0.2500000E+00  0.8333333E-01  0.2777778E-01
   1       -6.839404
   2        4.927015
   3        7.440148
   4        9.447715
   5       22.184999
   6       26.431262
   7       29.439240
   8       30.770288
   9       40.678963
  10       42.247081
  11       46.554458
  12       51.560205
 
  0.5000000E+00  0.2500000E+00  0.8333333E-01  0.2777778E-01
   1       -4.976437
   2        1.962019
   3        7.126179
   4        8.487789
   5       22.767504
   6       27.178762
   7       30.193223
   8       31.859198
   9       39.142501
  10       43.618247
  11       46.887768
  12       49.898585
 
 -0.4166667E+00  0.2500000E+00  0.8333333E-01  0.2777778E-01
   1       -2.830976
   2       -0.714439
   3        6.666939
   4        8.313349
   5       23.094017
   6       27.366453
   7       32.001816
   8       32.516465
   9       36.972173
  10       44.897734
  11       45.751478
  12       48.713606
 
 -0.3333333E+00  0.2500000E+00  0.8333333E-01  0.2777778E-01
   1       -3.555432
   2        0.138336
   3        6.171598
   4        8.903147
   5       23.625248
   6       26.827270
   7       32.012579
   8       33.411789
   9       36.210924
  10       42.460432
  11       46.044487
  12       49.996625
 
 -0.2500000E+00  0.2500000E+00  0.8333333E-01  0.2777778E-01
   1       -5.646473
   2        3.007475
   3        5.981285
   4        9.899267
   5       24.415318
   6       25.771763
   7       31.021253
   8       31.840906
   9       38.351334
  10       40.173526
  11       46.049351
  12       51.974466
 
 -0.1666667E+00  0.2500000E+00  0.8333333E-01  0.1388889E-01
   1       -7.371427
   2        5.826830
   3        6.427948
   4       11.062225
   5       24.032599
   6       25.546446
   7       29.292687
   8       30.874550
   9       38.971510
  10       40.001495
  11       45.394928
  12       53.830765
 
  0.4166667E+00  0.3333333E+00  0.8333333E-01  0.1388889E-01
   1       -6.157891
   2        5.724336
   3        6.702016
   4        7.727965
   5       20.770762
   6       24.129864
   7       31.356333
   8       32.550471
   9       42.088572
  10       43.217946
  11       49.174058
  12       54.922272
 
  0.5000000E+00  0.3333333E+00  0.8333333E-01  0.2777778E-01
   1       -4.452670
   2        3.538118
   3        5.617378
   4        6.931998
   5       21.755387
   6       24.903517
   7       31.447765
   8       33.864015
   9       40.715231
  10       43.844592
  11       48.913043
  12       52.677755
 
 -0.4166667E+00  0.3333333E+00  0.8333333E-01  0.2777778E-01
   1       -2.406484
   2        1.066588
   3        4.468731
   4        7.007538
   5       22.200775
   6       27.500994
   7       31.126397
   8       34.291827
   9       38.261255
  10       44.369824
  11       46.914996
  12       51.971857
 
 -0.3333333E+00  0.3333333E+00  0.8333333E-01  0.2777778E-01
   1       -1.786550
   2        0.446837
   3        3.595767
   4        7.648156
   5       22.753793
   6       29.064164
   7       32.058708
   8       33.701749
   9       35.825935
  10       42.861148
  11       46.039998
  12       52.840441
 
 -0.2500000E+00  0.3333333E+00  0.8333333E-01  0.1388889E-01
   1       -3.829261
   2        2.773046
   3        3.390746
   4        8.672150
   5       23.596121
   6       27.640827
   7       32.568086
   8       33.377263
   9       35.653753
  10       40.874394
  11       46.219753
  12       53.576728
 
  0.5000000E+00  0.4166667E+00  0.8333333E-01  0.1388889E-01
   1       -3.491498
   2        2.939100
   3        5.801941
   4        6.028062
   5       20.737047
   6       22.228538
   7       34.033056
   8       35.224529
   9       42.555974
  10       43.787341
  11       51.211416
  12       52.941428
 
 -0.4166667E+00  0.4166667E+00  0.8333333E-01  0.2777778E-01
   1       -1.592248
   2        1.467878
   3        3.874197
   4        6.057722
   5       21.509978
   6       24.038186
   7       33.718177
   8       35.358744
   9       40.739584
  10       43.741673
  11       48.837137
  12       53.092962
 
 -0.3333333E+00  0.4166667E+00  0.8333333E-01  0.1388889E-01
   1       -0.216418
   2        0.680633
   3        2.134633
   4        6.653718
   5       21.994847
   6       27.421796
   7       32.379456
   8       34.507597
   9       38.390227
  10       43.576546
  11       46.586636
  12       53.965478
 
 -0.4166667E+00  0.5000000E+00  0.8333333E-01  0.6944444E-02
   1       -0.380237
   2       -0.380237
   3        5.542804
   4        5.542804
   5       21.166691
   6       21.166691
   7       35.790121
   8       35.790121
   9       43.199765
  10       43.199765
  11       51.526300
  12       51.526301
 
  0.5000000E+00  0.3333333E+00  0.1666667E+00  0.1388889E-01
   1       -5.270969
   2        4.299028
   3        5.039857
   4        8.229796
   5       23.874665
   6       25.521385
   7       29.996059
   8       32.799264
   9       39.462022
  10       42.430126
  11       46.946699
  12       53.719450
 
 -0.4166667E+00  0.3333333E+00  0.1666667E+00  0.2777778E-01
   1       -3.321051
   2        1.851609
   3        4.756492
   4        7.096639
   5       24.456321
   6       26.374423
   7       30.799469
   8       33.997510
   9       37.086618
  10       43.354888
  11       47.034868
  12       51.917305
 
 -0.3333333E+00  0.3333333E+00  0.1666667E+00  0.1388889E-01
   1       -1.553624
   2       -0.189213
   3        4.860769
   4        6.584774
   5       24.330298
   6       27.125003
   7       32.665124
   8       32.844143
   9       36.030601
  10       44.126979
  11       46.943098
  12       50.803537
 
 -0.4166667E+00  0.4166667E+00  0.1666667E+00  0.1388889E-01
   1       -2.661283
   2        2.792668
   3        4.225633
   4        5.382153
   5       23.847086
   6       24.769635
   7       31.331182
   8       34.795966
   9       39.437776
  10       43.395704
  11       49.080216
  12       52.287086
 
 -0.3333333E+00  0.4166667E+00  0.1666667E+00  0.2777778E-01
   1       -0.693251
   2        1.175181
   3        3.189599
   4        5.056991
   5       24.437927
   6       27.052104
   7       31.146186
   8       33.093201
   9       38.996407
  10       43.035512
  11       48.602095
  12       52.051443
 
 -0.2500000E+00  0.4166667E+00  0.1666667E+00  0.1388889E-01
   1       -1.384704
   2        1.798146
   3        2.715397
   4        5.825094
   5       24.793008
   6       27.548640
   7       31.402121
   8       32.523474
   9       37.774118
  10       43.111535
  11       47.551726
  12       52.725701
 
 -0.3333333E+00  0.5000000E+00  0.1666667E+00  0.6944444E-02
   1        0.270488
   2        0.270489
   3        4.143470
   4        4.143470
   5       24.127833
   6       24.127834
   7       33.456939
   8       33.456939
   9       41.690527
  10       41.690528
  11       50.792340
  12       50.792341
 
 -0.2500000E+00  0.5000000E+00  0.2500000E+00  0.3472222E-02
   1        0.792544
   2        0.792544
   3        3.295353
   4        3.295353
   5       26.537391
   6       26.537391
   7       31.148809
   8       31.148809
   9       41.207473
  10       41.207473
  11       50.604922
  12       50.604922
