 vasp.5.3.3 18Dez12 (build Oct 01 2014 18:44:37) complex                        
  
 executed on             LinuxIFC date 2014.10.29  15:39:26
 running on    4 total cores
 distrk:  each k-point on    4 cores,    1 groups
 distr:  one band on NCORES_PER_BAND=   1 cores,    4 groups


--------------------------------------------------------------------------------------------------------


 INCAR:
 POTCAR:    PAW_PBE C 08Apr2002                   
 POTCAR:    PAW_PBE C 08Apr2002                   
   VRHFIN =C: s2p2                                                              
   LEXCH  = PE                                                                  
   EATOM  =   147.1560 eV,   10.8157 Ry                                         
                                                                                
   TITEL  = PAW_PBE C 08Apr2002                                                 
   LULTRA =        F    use ultrasoft PP ?                                      
   IUNSCR =        1    unscreen: 0-lin 1-nonlin 2-no                           
   RPACOR =    1.200    partial core radius                                     
   POMASS =   12.011; ZVAL   =    4.000    mass and valenz                      
   RCORE  =    1.500    outmost cutoff radius                                   
   RWIGS  =    1.630; RWIGS  =    0.863    wigner-seitz radius (au A)           
   ENMAX  =  400.000; ENMIN  =  300.000 eV                                      
   ICORE  =        2    local potential                                         
   LCOR   =        T    correct aug charges                                     
   LPAW   =        T    paw PP                                                  
   EAUG   =  644.873                                                            
   DEXC   =    0.000                                                            
   RMAX   =    1.529    core radius for proj-oper                               
   RAUG   =    1.300    factor for augmentation sphere                          
   RDEP   =    1.501    radius for radial grids                                 
   RDEPT  =    1.300    core radius for aug-charge                              
                                                                                
   Atomic configuration                                                         
    4 entries                                                                   
     n  l   j            E        occ.                                          
     1  0  0.50      -273.3789   2.0000                                         
     2  0  0.50       -13.7508   2.0000                                         
     2  1  0.50        -5.2854   2.0000                                         
     3  2  1.50        -5.4423   0.0000                                         
   Description                                                                  
     l       E           TYP  RCUT    TYP  RCUT                                 
     0    -13.7508458     23  1.200                                             
     0     -8.2022199     23  1.200                                             
     1     -5.2854383     23  1.500                                             
     1     34.0145650     23  1.500                                             
     2     -5.4423304      7  1.500                                             
  local pseudopotential read in
  partial core-charges read in
  partial kinetic energy density read in
  atomic valenz-charges read in
  non local Contribution for L=           0  read in
    real space projection operators read in
  non local Contribution for L=           0  read in
    real space projection operators read in
  non local Contribution for L=           1  read in
    real space projection operators read in
  non local Contribution for L=           1  read in
    real space projection operators read in
    PAW grid and wavefunctions read in
 
   number of l-projection  operators is LMAX  =           4
   number of lm-projection operators is LMMAX =           8
 
  PAW_PBE C 08Apr2002                   :
 energy of atom  1       EATOM= -147.1560
 kinetic energy error for atom=    0.0076 (will be added to EATOM!!)
 
 
 POSCAR: Diamond                                 
  positions in direct lattice
  No initial velocities read in
 exchange correlation table for  LEXCH =        8
   RHO(1)=    0.500       N(1)  =     2000
   RHO(2)=  100.500       N(2)  =     4000
 


--------------------------------------------------------------------------------------------------------


 ion  position               nearest neighbor table
   1  0.875  0.875  0.875-   2 1.40   2 1.40   2 1.40   2 1.40
   2  0.125  0.125  0.125-   1 1.40   1 1.40   1 1.40   1 1.40
 
  LATTYP: Found a face centered cubic cell.
 ALAT       =     3.2279800000
  
  Lattice vectors:
  
 A1 = (  -1.6139900000,   0.0000000000,   1.6139900000)
 A2 = (   0.0000000000,   1.6139900000,   1.6139900000)
 A3 = (  -1.6139900000,   1.6139900000,   0.0000000000)


Analysis of symmetry for initial positions (statically):
=====================================================================
 Subroutine PRICEL returns:
 Original cell was already a primitive cell.
 

 Routine SETGRP: Setting up the symmetry group for a 
 face centered cubic supercell.


 Subroutine GETGRP returns: Found 48 space group operations
 (whereof 12 operations were pure point group operations)
 out of a pool of 48 trial point group operations.


The static configuration has the point symmetry D_3d.
 The point group associated with its full space group is O_h .


Analysis of symmetry for dynamics (positions and initial velocities):
=====================================================================
 Subroutine PRICEL returns:
 Original cell was already a primitive cell.
 

 Routine SETGRP: Setting up the symmetry group for a 
 face centered cubic supercell.


 Subroutine GETGRP returns: Found 48 space group operations
 (whereof 12 operations were pure point group operations)
 out of a pool of 48 trial point group operations.


The dynamic configuration has the point symmetry D_3d.
 The point group associated with its full space group is O_h .


 irot  :   1
 --------------------------------------------------------------------
 isymop:   1   0   0
           0   1   0
           0   0   1

 gtrans:     0.0000000     0.0000000     0.0000000

 ptrans:     0.0000000     0.0000000     0.0000000
 rotmap:
 (   1->   1)  (   2->   2) 


 irot  :   2
 --------------------------------------------------------------------
 isymop:  -1   0   0
           0  -1   0
           0   0  -1

 gtrans:     0.0000000     0.0000000     0.0000000

 ptrans:     0.0000000     0.0000000     0.0000000
 rotmap:
 (   1->   2)  (   2->   1) 


 irot  :   3
 --------------------------------------------------------------------
 isymop:   0   0   1
           1   0   0
           0   1   0

 gtrans:     0.0000000     0.0000000     0.0000000

 ptrans:     0.0000000     0.0000000     0.0000000
 rotmap:
 (   1->   1)  (   2->   2) 


 irot  :   4
 --------------------------------------------------------------------
 isymop:   0   0  -1
          -1   0   0
           0  -1   0

 gtrans:     0.0000000     0.0000000     0.0000000

 ptrans:     0.0000000     0.0000000     0.0000000
 rotmap:
 (   1->   2)  (   2->   1) 


 irot  :   5
 --------------------------------------------------------------------
 isymop:   0   1   0
           0   0   1
           1   0   0

 gtrans:     0.0000000     0.0000000     0.0000000

 ptrans:     0.0000000     0.0000000     0.0000000
 rotmap:
 (   1->   1)  (   2->   2) 


 irot  :   6
 --------------------------------------------------------------------
 isymop:   0  -1   0
           0   0  -1
          -1   0   0

 gtrans:     0.0000000     0.0000000     0.0000000

 ptrans:     0.0000000     0.0000000     0.0000000
 rotmap:
 (   1->   2)  (   2->   1) 


 irot  :   7
 --------------------------------------------------------------------
 isymop:  -1   0   0
           0   0  -1
           0  -1   0

 gtrans:     0.0000000     0.0000000     0.0000000

 ptrans:     0.0000000     0.0000000     0.0000000
 rotmap:
 (   1->   2)  (   2->   1) 


 irot  :   8
 --------------------------------------------------------------------
 isymop:   1   0   0
           0   0   1
           0   1   0

 gtrans:     0.0000000     0.0000000     0.0000000

 ptrans:     0.0000000     0.0000000     0.0000000
 rotmap:
 (   1->   1)  (   2->   2) 


 irot  :   9
 --------------------------------------------------------------------
 isymop:   0  -1   0
          -1   0   0
           0   0  -1

 gtrans:     0.0000000     0.0000000     0.0000000

 ptrans:     0.0000000     0.0000000     0.0000000
 rotmap:
 (   1->   2)  (   2->   1) 


 irot  :  10
 --------------------------------------------------------------------
 isymop:   0   1   0
           1   0   0
           0   0   1

 gtrans:     0.0000000     0.0000000     0.0000000

 ptrans:     0.0000000     0.0000000     0.0000000
 rotmap:
 (   1->   1)  (   2->   2) 


 irot  :  11
 --------------------------------------------------------------------
 isymop:   0   0  -1
           0  -1   0
          -1   0   0

 gtrans:     0.0000000     0.0000000     0.0000000

 ptrans:     0.0000000     0.0000000     0.0000000
 rotmap:
 (   1->   2)  (   2->   1) 


 irot  :  12
 --------------------------------------------------------------------
 isymop:   0   0   1
           0   1   0
           1   0   0

 gtrans:     0.0000000     0.0000000     0.0000000

 ptrans:     0.0000000     0.0000000     0.0000000
 rotmap:
 (   1->   1)  (   2->   2) 


 irot  :  13
 --------------------------------------------------------------------
 isymop:   1   1   1
           0   0  -1
          -1   0   0

 gtrans:     0.5000000     0.0000000     0.0000000

 ptrans:     0.0000000     0.0000000     0.0000000
 rotmap:
 (   1->   2)  (   2->   1) 


 irot  :  14
 --------------------------------------------------------------------
 isymop:  -1  -1  -1
           0   0   1
           1   0   0

 gtrans:     0.5000000     0.0000000     0.0000000

 ptrans:     0.0000000     0.0000000     0.0000000
 rotmap:
 (   1->   1)  (   2->   2) 


 irot  :  15
 --------------------------------------------------------------------
 isymop:   1   1   1
           0  -1   0
           0   0  -1

 gtrans:     0.5000000     0.0000000     0.0000000

 ptrans:     0.0000000     0.0000000     0.0000000
 rotmap:
 (   1->   2)  (   2->   1) 


 irot  :  16
 --------------------------------------------------------------------
 isymop:  -1  -1  -1
           0   1   0
           0   0   1

 gtrans:     0.5000000     0.0000000     0.0000000

 ptrans:     0.0000000     0.0000000     0.0000000
 rotmap:
 (   1->   1)  (   2->   2) 


 irot  :  17
 --------------------------------------------------------------------
 isymop:   1   1   1
          -1   0   0
           0  -1   0

 gtrans:     0.5000000     0.0000000     0.0000000

 ptrans:     0.0000000     0.0000000     0.0000000
 rotmap:
 (   1->   2)  (   2->   1) 


 irot  :  18
 --------------------------------------------------------------------
 isymop:  -1  -1  -1
           1   0   0
           0   1   0

 gtrans:     0.5000000     0.0000000     0.0000000

 ptrans:     0.0000000     0.0000000     0.0000000
 rotmap:
 (   1->   1)  (   2->   2) 


 irot  :  19
 --------------------------------------------------------------------
 isymop:   0   1   0
           1   0   0
          -1  -1  -1

 gtrans:     0.0000000     0.0000000     0.5000000

 ptrans:     0.0000000     0.0000000     0.0000000
 rotmap:
 (   1->   1)  (   2->   2) 


 irot  :  20
 --------------------------------------------------------------------
 isymop:   0  -1   0
          -1   0   0
           1   1   1

 gtrans:     0.0000000     0.0000000     0.5000000

 ptrans:     0.0000000     0.0000000     0.0000000
 rotmap:
 (   1->   2)  (   2->   1) 


 irot  :  21
 --------------------------------------------------------------------
 isymop:   1   0   0
           0   0   1
          -1  -1  -1

 gtrans:     0.0000000     0.0000000     0.5000000

 ptrans:     0.0000000     0.0000000     0.0000000
 rotmap:
 (   1->   1)  (   2->   2) 


 irot  :  22
 --------------------------------------------------------------------
 isymop:  -1   0   0
           0   0  -1
           1   1   1

 gtrans:     0.0000000     0.0000000     0.5000000

 ptrans:     0.0000000     0.0000000     0.0000000
 rotmap:
 (   1->   2)  (   2->   1) 


 irot  :  23
 --------------------------------------------------------------------
 isymop:   0   0   1
           0   1   0
          -1  -1  -1

 gtrans:     0.0000000     0.0000000     0.5000000

 ptrans:     0.0000000     0.0000000     0.0000000
 rotmap:
 (   1->   1)  (   2->   2) 


 irot  :  24
 --------------------------------------------------------------------
 isymop:   0   0  -1
           0  -1   0
           1   1   1

 gtrans:     0.0000000     0.0000000     0.5000000

 ptrans:     0.0000000     0.0000000     0.0000000
 rotmap:
 (   1->   2)  (   2->   1) 


 irot  :  25
 --------------------------------------------------------------------
 isymop:   0   0  -1
           1   1   1
           0  -1   0

 gtrans:     0.0000000     0.5000000     0.0000000

 ptrans:     0.0000000     0.0000000     0.0000000
 rotmap:
 (   1->   2)  (   2->   1) 


 irot  :  26
 --------------------------------------------------------------------
 isymop:   0   0   1
          -1  -1  -1
           0   1   0

 gtrans:     0.0000000     0.5000000     0.0000000

 ptrans:     0.0000000     0.0000000     0.0000000
 rotmap:
 (   1->   1)  (   2->   2) 


 irot  :  27
 --------------------------------------------------------------------
 isymop:   0  -1   0
           1   1   1
          -1   0   0

 gtrans:     0.0000000     0.5000000     0.0000000

 ptrans:     0.0000000     0.0000000     0.0000000
 rotmap:
 (   1->   2)  (   2->   1) 


 irot  :  28
 --------------------------------------------------------------------
 isymop:   0   1   0
          -1  -1  -1
           1   0   0

 gtrans:     0.0000000     0.5000000     0.0000000

 ptrans:     0.0000000     0.0000000     0.0000000
 rotmap:
 (   1->   1)  (   2->   2) 


 irot  :  29
 --------------------------------------------------------------------
 isymop:  -1   0   0
           1   1   1
           0   0  -1

 gtrans:     0.0000000     0.5000000     0.0000000

 ptrans:     0.0000000     0.0000000     0.0000000
 rotmap:
 (   1->   2)  (   2->   1) 


 irot  :  30
 --------------------------------------------------------------------
 isymop:   1   0   0
          -1  -1  -1
           0   0   1

 gtrans:     0.0000000     0.5000000     0.0000000

 ptrans:     0.0000000     0.0000000     0.0000000
 rotmap:
 (   1->   1)  (   2->   2) 


 irot  :  31
 --------------------------------------------------------------------
 isymop:  -1  -1  -1
           0   1   0
           1   0   0

 gtrans:     0.5000000     0.0000000     0.0000000

 ptrans:     0.0000000     0.0000000     0.0000000
 rotmap:
 (   1->   1)  (   2->   2) 


 irot  :  32
 --------------------------------------------------------------------
 isymop:   1   1   1
           0  -1   0
          -1   0   0

 gtrans:     0.5000000     0.0000000     0.0000000

 ptrans:     0.0000000     0.0000000     0.0000000
 rotmap:
 (   1->   2)  (   2->   1) 


 irot  :  33
 --------------------------------------------------------------------
 isymop:  -1  -1  -1
           1   0   0
           0   0   1

 gtrans:     0.5000000     0.0000000     0.0000000

 ptrans:     0.0000000     0.0000000     0.0000000
 rotmap:
 (   1->   1)  (   2->   2) 


 irot  :  34
 --------------------------------------------------------------------
 isymop:   1   1   1
          -1   0   0
           0   0  -1

 gtrans:     0.5000000     0.0000000     0.0000000

 ptrans:     0.0000000     0.0000000     0.0000000
 rotmap:
 (   1->   2)  (   2->   1) 


 irot  :  35
 --------------------------------------------------------------------
 isymop:  -1  -1  -1
           0   0   1
           0   1   0

 gtrans:     0.5000000     0.0000000     0.0000000

 ptrans:     0.0000000     0.0000000     0.0000000
 rotmap:
 (   1->   1)  (   2->   2) 


 irot  :  36
 --------------------------------------------------------------------
 isymop:   1   1   1
           0   0  -1
           0  -1   0

 gtrans:     0.5000000     0.0000000     0.0000000

 ptrans:     0.0000000     0.0000000     0.0000000
 rotmap:
 (   1->   2)  (   2->   1) 


 irot  :  37
 --------------------------------------------------------------------
 isymop:   0  -1   0
           0   0  -1
           1   1   1

 gtrans:     0.0000000     0.0000000     0.5000000

 ptrans:     0.0000000     0.0000000     0.0000000
 rotmap:
 (   1->   2)  (   2->   1) 


 irot  :  38
 --------------------------------------------------------------------
 isymop:   0   1   0
           0   0   1
          -1  -1  -1

 gtrans:     0.0000000     0.0000000     0.5000000

 ptrans:     0.0000000     0.0000000     0.0000000
 rotmap:
 (   1->   1)  (   2->   2) 


 irot  :  39
 --------------------------------------------------------------------
 isymop:  -1   0   0
           0  -1   0
           1   1   1

 gtrans:     0.0000000     0.0000000     0.5000000

 ptrans:     0.0000000     0.0000000     0.0000000
 rotmap:
 (   1->   2)  (   2->   1) 


 irot  :  40
 --------------------------------------------------------------------
 isymop:   1   0   0
           0   1   0
          -1  -1  -1

 gtrans:     0.0000000     0.0000000     0.5000000

 ptrans:     0.0000000     0.0000000     0.0000000
 rotmap:
 (   1->   1)  (   2->   2) 


 irot  :  41
 --------------------------------------------------------------------
 isymop:   0   0  -1
          -1   0   0
           1   1   1

 gtrans:     0.0000000     0.0000000     0.5000000

 ptrans:     0.0000000     0.0000000     0.0000000
 rotmap:
 (   1->   2)  (   2->   1) 


 irot  :  42
 --------------------------------------------------------------------
 isymop:   0   0   1
           1   0   0
          -1  -1  -1

 gtrans:     0.0000000     0.0000000     0.5000000

 ptrans:     0.0000000     0.0000000     0.0000000
 rotmap:
 (   1->   1)  (   2->   2) 


 irot  :  43
 --------------------------------------------------------------------
 isymop:   1   0   0
          -1  -1  -1
           0   1   0

 gtrans:     0.0000000     0.5000000     0.0000000

 ptrans:     0.0000000     0.0000000     0.0000000
 rotmap:
 (   1->   1)  (   2->   2) 


 irot  :  44
 --------------------------------------------------------------------
 isymop:  -1   0   0
           1   1   1
           0  -1   0

 gtrans:     0.0000000     0.5000000     0.0000000

 ptrans:     0.0000000     0.0000000     0.0000000
 rotmap:
 (   1->   2)  (   2->   1) 


 irot  :  45
 --------------------------------------------------------------------
 isymop:   0   0   1
          -1  -1  -1
           1   0   0

 gtrans:     0.0000000     0.5000000     0.0000000

 ptrans:     0.0000000     0.0000000     0.0000000
 rotmap:
 (   1->   1)  (   2->   2) 


 irot  :  46
 --------------------------------------------------------------------
 isymop:   0   0  -1
           1   1   1
          -1   0   0

 gtrans:     0.0000000     0.5000000     0.0000000

 ptrans:     0.0000000     0.0000000     0.0000000
 rotmap:
 (   1->   2)  (   2->   1) 


 irot  :  47
 --------------------------------------------------------------------
 isymop:   0   1   0
          -1  -1  -1
           0   0   1

 gtrans:     0.0000000     0.5000000     0.0000000

 ptrans:     0.0000000     0.0000000     0.0000000
 rotmap:
 (   1->   1)  (   2->   2) 


 irot  :  48
 --------------------------------------------------------------------
 isymop:   0  -1   0
           1   1   1
           0   0  -1

 gtrans:     0.0000000     0.5000000     0.0000000

 ptrans:     0.0000000     0.0000000     0.0000000
 rotmap:
 (   1->   2)  (   2->   1) 
 
 
 KPOINTS: Auto Kmesh                              

Automatic generation of k-mesh.
Space group operators:
 irot       det(A)        alpha          n_x          n_y          n_z        tau_x        tau_y        tau_z
    1     1.000000     0.000000     1.000000     0.000000     0.000000     0.000000     0.000000     0.000000
    2    -1.000000     0.000000     1.000000     0.000000     0.000000     0.000000     0.000000     0.000000
    3     1.000000   120.000000     0.577350    -0.577350    -0.577350     0.000000     0.000000     0.000000
    4    -1.000000   120.000000     0.577350    -0.577350    -0.577350     0.000000     0.000000     0.000000
    5     1.000000   120.000000    -0.577350     0.577350     0.577350     0.000000     0.000000     0.000000
    6    -1.000000   120.000000    -0.577350     0.577350     0.577350     0.000000     0.000000     0.000000
    7     1.000000   180.000000     0.707107     0.000000     0.707107     0.000000     0.000000     0.000000
    8    -1.000000   180.000000     0.707107     0.000000     0.707107     0.000000     0.000000     0.000000
    9     1.000000   180.000000     0.707107     0.707107     0.000000     0.000000     0.000000     0.000000
   10    -1.000000   180.000000     0.707107     0.707107     0.000000     0.000000     0.000000     0.000000
   11     1.000000   180.000000     0.000000    -0.707107     0.707107     0.000000     0.000000     0.000000
   12    -1.000000   180.000000     0.000000    -0.707107     0.707107     0.000000     0.000000     0.000000
   13     1.000000    90.000000     0.000000     0.000000    -1.000000     0.500000     0.000000     0.000000
   14    -1.000000    90.000000     0.000000     0.000000    -1.000000     0.500000     0.000000     0.000000
   15     1.000000   180.000000     0.707107     0.000000    -0.707107     0.500000     0.000000     0.000000
   16    -1.000000   180.000000     0.707107     0.000000    -0.707107     0.500000     0.000000     0.000000
   17     1.000000    90.000000    -1.000000     0.000000     0.000000     0.500000     0.000000     0.000000
   18    -1.000000    90.000000    -1.000000     0.000000     0.000000     0.500000     0.000000     0.000000
   19     1.000000   179.999999     0.000000     0.000000     1.000000     0.000000     0.000000     0.500000
   20    -1.000000   179.999999     0.000000     0.000000     1.000000     0.000000     0.000000     0.500000
   21     1.000000   120.000000    -0.577350    -0.577350     0.577350     0.000000     0.000000     0.500000
   22    -1.000000   120.000000    -0.577350    -0.577350     0.577350     0.000000     0.000000     0.500000
   23     1.000000   120.000000    -0.577350    -0.577350    -0.577350     0.000000     0.000000     0.500000
   24    -1.000000   120.000000    -0.577350    -0.577350    -0.577350     0.000000     0.000000     0.500000
   25     1.000000    90.000000     0.000000     0.000000     1.000000     0.000000     0.500000     0.000000
   26    -1.000000    90.000000     0.000000     0.000000     1.000000     0.000000     0.500000     0.000000
   27     1.000000    90.000000     0.000000    -1.000000     0.000000     0.000000     0.500000     0.000000
   28    -1.000000    90.000000     0.000000    -1.000000     0.000000     0.000000     0.500000     0.000000
   29     1.000000   180.000000     0.000000     0.707107     0.707107     0.000000     0.500000     0.000000
   30    -1.000000   180.000000     0.000000     0.707107     0.707107     0.000000     0.500000     0.000000
   31     1.000000   120.000000     0.577350     0.577350     0.577350     0.500000     0.000000     0.000000
   32    -1.000000   120.000000     0.577350     0.577350     0.577350     0.500000     0.000000     0.000000
   33     1.000000   120.000000     0.577350    -0.577350     0.577350     0.500000     0.000000     0.000000
   34    -1.000000   120.000000     0.577350    -0.577350     0.577350     0.500000     0.000000     0.000000
   35     1.000000   180.000000     0.000000     1.000000     0.000000     0.500000     0.000000     0.000000
   36    -1.000000   180.000000     0.000000     1.000000     0.000000     0.500000     0.000000     0.000000
   37     1.000000    90.000000     1.000000     0.000000     0.000000     0.000000     0.000000     0.500000
   38    -1.000000    90.000000     1.000000     0.000000     0.000000     0.000000     0.000000     0.500000
   39     1.000000   180.000000     0.707107    -0.707107     0.000000     0.000000     0.000000     0.500000
   40    -1.000000   180.000000     0.707107    -0.707107     0.000000     0.000000     0.000000     0.500000
   41     1.000000    90.000000     0.000000     1.000000     0.000000     0.000000     0.000000     0.500000
   42    -1.000000    90.000000     0.000000     1.000000     0.000000     0.000000     0.000000     0.500000
   43     1.000000   120.000000     0.577350     0.577350    -0.577350     0.000000     0.500000     0.000000
   44    -1.000000   120.000000     0.577350     0.577350    -0.577350     0.000000     0.500000     0.000000
   45     1.000000   180.000000     1.000000     0.000000     0.000000     0.000000     0.500000     0.000000
   46    -1.000000   180.000000     1.000000     0.000000     0.000000     0.000000     0.500000     0.000000
   47     1.000000   120.000000    -0.577350     0.577350    -0.577350     0.000000     0.500000     0.000000
   48    -1.000000   120.000000    -0.577350     0.577350    -0.577350     0.000000     0.500000     0.000000
 
 Subroutine IBZKPT returns following result:
 ===========================================
 
 Found     72 irreducible k-points:
 
 Following reciprocal coordinates:
            Coordinates               Weight
  0.000000  0.000000  0.000000      1.000000
  0.083333  0.000000  0.000000      8.000000
  0.166667  0.000000  0.000000      8.000000
  0.250000  0.000000  0.000000      8.000000
  0.333333  0.000000  0.000000      8.000000
  0.416667  0.000000  0.000000      8.000000
  0.500000  0.000000  0.000000      4.000000
  0.083333  0.083333  0.000000      6.000000
  0.166667  0.083333  0.000000     24.000000
  0.250000  0.083333  0.000000     24.000000
  0.333333  0.083333  0.000000     24.000000
  0.416667  0.083333  0.000000     24.000000
  0.500000  0.083333  0.000000     24.000000
 -0.416667  0.083333  0.000000     24.000000
 -0.333333  0.083333  0.000000     24.000000
 -0.250000  0.083333  0.000000     24.000000
 -0.166667  0.083333  0.000000     24.000000
 -0.083333  0.083333  0.000000     12.000000
  0.166667  0.166667  0.000000      6.000000
  0.250000  0.166667  0.000000     24.000000
  0.333333  0.166667  0.000000     24.000000
  0.416667  0.166667  0.000000     24.000000
  0.500000  0.166667  0.000000     24.000000
 -0.416667  0.166667  0.000000     24.000000
 -0.333333  0.166667  0.000000     24.000000
 -0.250000  0.166667  0.000000     24.000000
 -0.166667  0.166667  0.000000     12.000000
  0.250000  0.250000  0.000000      6.000000
  0.333333  0.250000  0.000000     24.000000
  0.416667  0.250000  0.000000     24.000000
  0.500000  0.250000  0.000000     24.000000
 -0.416667  0.250000  0.000000     24.000000
 -0.333333  0.250000  0.000000     24.000000
 -0.250000  0.250000  0.000000     12.000000
  0.333333  0.333333  0.000000      6.000000
  0.416667  0.333333  0.000000     24.000000
  0.500000  0.333333  0.000000     24.000000
 -0.416667  0.333333  0.000000     24.000000
 -0.333333  0.333333  0.000000     12.000000
  0.416667  0.416667  0.000000      6.000000
  0.500000  0.416667  0.000000     24.000000
 -0.416667  0.416667  0.000000     12.000000
  0.500000  0.500000  0.000000      3.000000
  0.250000  0.166667  0.083333     24.000000
  0.333333  0.166667  0.083333     48.000000
  0.416667  0.166667  0.083333     48.000000
  0.500000  0.166667  0.083333     48.000000
 -0.416667  0.166667  0.083333     24.000000
  0.333333  0.250000  0.083333     24.000000
  0.416667  0.250000  0.083333     48.000000
  0.500000  0.250000  0.083333     48.000000
 -0.416667  0.250000  0.083333     48.000000
 -0.333333  0.250000  0.083333     48.000000
 -0.250000  0.250000  0.083333     48.000000
 -0.166667  0.250000  0.083333     24.000000
  0.416667  0.333333  0.083333     24.000000
  0.500000  0.333333  0.083333     48.000000
 -0.416667  0.333333  0.083333     48.000000
 -0.333333  0.333333  0.083333     48.000000
 -0.250000  0.333333  0.083333     24.000000
  0.500000  0.416667  0.083333     24.000000
 -0.416667  0.416667  0.083333     48.000000
 -0.333333  0.416667  0.083333     24.000000
 -0.416667  0.500000  0.083333     12.000000
  0.500000  0.333333  0.166667     24.000000
 -0.416667  0.333333  0.166667     48.000000
 -0.333333  0.333333  0.166667     24.000000
 -0.416667  0.416667  0.166667     24.000000
 -0.333333  0.416667  0.166667     48.000000
 -0.250000  0.416667  0.166667     24.000000
 -0.333333  0.500000  0.166667     12.000000
 -0.250000  0.500000  0.250000      6.000000
 
 Following cartesian coordinates:
            Coordinates               Weight
  0.000000  0.000000  0.000000      1.000000
 -0.025816 -0.025816  0.025816      8.000000
 -0.051632 -0.051632  0.051632      8.000000
 -0.077448 -0.077448  0.077448      8.000000
 -0.103264 -0.103264  0.103264      8.000000
 -0.129080 -0.129080  0.129080      8.000000
 -0.154896 -0.154896  0.154896      4.000000
  0.000000  0.000000  0.051632      6.000000
 -0.025816 -0.025816  0.077448     24.000000
 -0.051632 -0.051632  0.103264     24.000000
 -0.077448 -0.077448  0.129080     24.000000
 -0.103264 -0.103264  0.154896     24.000000
 -0.129080 -0.129080  0.180712     24.000000
  0.154896  0.154896 -0.103264     24.000000
  0.129080  0.129080 -0.077448     24.000000
  0.103264  0.103264 -0.051632     24.000000
  0.077448  0.077448 -0.025816     24.000000
  0.051632  0.051632  0.000000     12.000000
  0.000000  0.000000  0.103264      6.000000
 -0.025816 -0.025816  0.129080     24.000000
 -0.051632 -0.051632  0.154896     24.000000
 -0.077448 -0.077448  0.180712     24.000000
 -0.103264 -0.103264  0.206528     24.000000
  0.180712  0.180712 -0.077448     24.000000
  0.154896  0.154896 -0.051632     24.000000
  0.129080  0.129080 -0.025816     24.000000
  0.103264  0.103264  0.000000     12.000000
  0.000000  0.000000  0.154896      6.000000
 -0.025816 -0.025816  0.180712     24.000000
 -0.051632 -0.051632  0.206528     24.000000
 -0.077448 -0.077448  0.232343     24.000000
  0.206528  0.206528 -0.051632     24.000000
  0.180712  0.180712 -0.025816     24.000000
  0.154896  0.154896  0.000000     12.000000
  0.000000  0.000000  0.206528      6.000000
 -0.025816 -0.025816  0.232343     24.000000
 -0.051632 -0.051632  0.258159     24.000000
  0.232343  0.232343 -0.025816     24.000000
  0.206528  0.206528  0.000000     12.000000
  0.000000  0.000000  0.258159      6.000000
 -0.025816 -0.025816  0.283975     24.000000
  0.258159  0.258159  0.000000     12.000000
  0.000000  0.000000  0.309791      3.000000
 -0.051632  0.000000  0.103264     24.000000
 -0.077448 -0.025816  0.129080     48.000000
 -0.103264 -0.051632  0.154896     48.000000
 -0.129080 -0.077448  0.180712     48.000000
  0.154896  0.206528 -0.103264     24.000000
 -0.051632  0.000000  0.154896     24.000000
 -0.077448 -0.025816  0.180712     48.000000
 -0.103264 -0.051632  0.206528     48.000000
  0.180712  0.232343 -0.077448     48.000000
  0.154896  0.206528 -0.051632     48.000000
  0.129080  0.180712 -0.025816     48.000000
  0.103264  0.154896  0.000000     24.000000
 -0.051632 -0.000000  0.206528     24.000000
 -0.077448 -0.025816  0.232343     48.000000
  0.206528  0.258159 -0.051632     48.000000
  0.180712  0.232343 -0.025816     48.000000
  0.154896  0.206528 -0.000000     24.000000
 -0.051632  0.000000  0.258159     24.000000
  0.232343  0.283975 -0.025816     48.000000
  0.206528  0.258159  0.000000     24.000000
  0.258159  0.309791 -0.000000     12.000000
 -0.103264  0.000000  0.206528     24.000000
  0.180712  0.283975 -0.077448     48.000000
  0.154896  0.258159 -0.051632     24.000000
  0.206528  0.309791 -0.051632     24.000000
  0.180712  0.283975 -0.025816     48.000000
  0.154896  0.258159  0.000000     24.000000
  0.206528  0.309791 -0.000000     12.000000
  0.154896  0.309791  0.000000      6.000000
 
 TETIRR: Found    247 inequivalent tetrahedra from    10368

 ----------------------------------------------------------------------------- 
|                                                                             |
|           W    W    AA    RRRRR   N    N  II  N    N   GGGG   !!!           |
|           W    W   A  A   R    R  NN   N  II  NN   N  G    G  !!!           |
|           W    W  A    A  R    R  N N  N  II  N N  N  G       !!!           |
|           W WW W  AAAAAA  RRRRR   N  N N  II  N  N N  G  GGG   !            |
|           WW  WW  A    A  R   R   N   NN  II  N   NN  G    G                |
|           W    W  A    A  R    R  N    N  II  N    N   GGGG   !!!           |
|                                                                             |
|      The number of bands has been changed from the values supplied          |
|      in the INCAR file. This is a result of running the parallel version.   |
|      The orbitals not found in the WAVECAR file will be initialized with    |
|      random numbers, which is usually adequate. For correlated              |
|      calculations, however, you should redo the groundstate calculation.    |
|      I found NBANDS    =       10  now  NBANDS  =      12                   |
|                                                                             |
 ----------------------------------------------------------------------------- 



--------------------------------------------------------------------------------------------------------




 Dimension of arrays:
   k-points           NKPTS =     72   k-points in BZ     NKDIM =     72   number of bands    NBANDS=     12
   number of dos      NEDOS =    301   number of ions     NIONS =      2
   non local maximal  LDIM  =      4   non local SUM 2l+1 LMDIM =      8
   total plane-waves  NPLWV =   5832
   max r-space proj   IRMAX =      1   max aug-charges    IRDMAX=   4050
   dimension x,y,z NGX =    18 NGY =   18 NGZ =   18
   dimension x,y,z NGXF=    28 NGYF=   28 NGZF=   28
   support grid    NGXF=    28 NGYF=   28 NGZF=   28
   ions per type =               2
 NGX,Y,Z   is equivalent  to a cutoff of  13.11, 13.11, 13.11 a.u.
 NGXF,Y,Z  is equivalent  to a cutoff of  20.39, 20.39, 20.39 a.u.


 I would recommend the setting:
   dimension x,y,z NGX =    17 NGY =   17 NGZ =   17
 SYSTEM =  unknown system                          
 POSCAR =  Diamond                                 

 Startparameter for this run:
   NWRITE =      2    write-flag & timer
   PREC   = high      normal or accurate (medium, high low for compatibility)
   ISTART =      0    job   : 0-new  1-cont  2-samecut
   ICHARG =      2    charge: 1-file 2-atom 10-const
   ISPIN  =      1    spin polarized calculation?
   LNONCOLLINEAR =      F non collinear calculations
   LSORBIT =      F    spin-orbit coupling
   INIWAV =      1    electr: 0-lowe 1-rand  2-diag
   LASPH  =      F    aspherical Exc in radial PAW
   METAGGA=      F    non-selfconsistent MetaGGA calc.

 Electronic Relaxation 1
   ENCUT  =  500.0 eV  36.75 Ry    6.06 a.u.   4.16  4.16  4.16*2*pi/ulx,y,z
   ENINI  =  500.0     initial cutoff
   ENAUG  =  644.9 eV  augmentation charge cutoff
   NELM   =     50;   NELMIN=  5; NELMDL= -5     # of ELM steps 
   EDIFF  = 0.1E-04   stopping-criterion for ELM
   LREAL  =      F    real-space projection
   NLSPLINE    = F    spline interpolate recip. space projectors
   LCOMPAT=      F    compatible to vasp.4.4
   GGA_COMPAT  = T    GGA compatible to vasp.4.4-vasp.4.6
   LMAXPAW     = -100 max onsite density
   LMAXMIX     =    2 max onsite mixed and CHGCAR
   VOSKOWN=      0    Vosko Wilk Nusair interpolation
   ROPT   =    0.00000
 Ionic relaxation
   EDIFFG = 0.1E-03   stopping-criterion for IOM
   NSW    =      0    number of steps for IOM
   NBLOCK =      1;   KBLOCK =      1    inner block; outer block 
   IBRION =     -1    ionic relax: 0-MD 1-quasi-New 2-CG
   NFREE  =      0    steps in history (QN), initial steepest desc. (CG)
   ISIF   =      2    stress and relaxation
   IWAVPR =     10    prediction:  0-non 1-charg 2-wave 3-comb
   ISYM   =      2    0-nonsym 1-usesym 2-fastsym
   LCORR  =      T    Harris-Foulkes like correction to forces

   POTIM  = 0.5000    time-step for ionic-motion
   TEIN   =    0.0    initial temperature
   TEBEG  =    0.0;   TEEND  =   0.0 temperature during run
   SMASS  =  -3.00    Nose mass-parameter (am)
   estimated Nose-frequenzy (Omega)   =  0.10E-29 period in steps =****** mass=  -0.119E-27a.u.
   SCALEE = 1.0000    scale energy and forces
   NPACO  =    256;   APACO  = 16.0  distance and # of slots for P.C.
   PSTRESS=    0.0 pullay stress

  Mass of Ions in am
   POMASS =  12.01
  Ionic Valenz
   ZVAL   =   4.00
  Atomic Wigner-Seitz radii
   RWIGS  =  -1.00
  virtual crystal weights 
   VCA    =   1.00
   NELECT =       8.0000    total number of electrons
   NUPDOWN=      -1.0000    fix difference up-down

 DOS related values:
   EMIN   =  10.00;   EMAX   =-10.00  energy-range for DOS
   EFERMI =   0.00
   ISMEAR =    -5;   SIGMA  =   0.20  broadening in eV -4-tet -1-fermi 0-gaus

 Electronic relaxation 2 (details)
   IALGO  =     38    algorithm
   LDIAG  =      T    sub-space diagonalisation (order eigenvalues)
   LSUBROT=      T    optimize rotation matrix (better conditioning)
   TURBO    =      0    0=normal 1=particle mesh
   IRESTART =      0    0=no restart 2=restart with 2 vectors
   NREBOOT  =      0    no. of reboots
   NMIN     =      0    reboot dimension
   EREF     =   0.00    reference energy to select bands
   IMIX   =      4    mixing-type and parameters
     AMIX     =   0.40;   BMIX     =  1.00
     AMIX_MAG =   1.60;   BMIX_MAG =  1.00
     AMIN     =   0.10
     WC   =   100.;   INIMIX=   1;  MIXPRE=   1;  MAXMIX= -45

 Intra band minimization:
   WEIMIN = 0.0000     energy-eigenvalue tresh-hold
   EBREAK =  0.21E-06  absolut break condition
   DEPER  =   0.30     relativ break condition  

   TIME   =   0.40     timestep for ELM

  volume/ion in A,a.u.               =       4.20        28.37
  Fermi-wavevector in a.u.,A,eV,Ry     =   1.610129  3.042702 35.273311  2.592515
  Thomas-Fermi vector in A             =   2.705729
 
 Write flags
   LWAVE  =      F    write WAVECAR
   LCHARG =      T    write CHGCAR
   LVTOT  =      F    write LOCPOT, total local potential
   LVHAR  =      F    write LOCPOT, Hartree potential only
   LELF   =      F    write electronic localiz. function (ELF)
   LORBIT =      0    0 simple, 1 ext, 2 COOP (PROOUT)


 Dipole corrections
   LMONO  =      F    monopole corrections only (constant potential shift)
   LDIPOL =      F    correct potential (dipole corrections)
   IDIPOL =      0    1-x, 2-y, 3-z, 4-all directions 
   EPSILON=  1.0000000 bulk dielectric constant

 Exchange correlation treatment:
   GGA     =    --    GGA type
   LEXCH   =     8    internal setting for exchange type
   VOSKOWN=      0    Vosko Wilk Nusair interpolation
   LHFCALC =     F    Hartree Fock is set to
   LHFONE  =     F    Hartree Fock one center treatment
   AEXX    =    0.0000 exact exchange contribution

 Linear response parameters
   LEPSILON=     F    determine dielectric tensor
   LRPA    =     F    only Hartree local field effects (RPA)
   LNABLA  =     F    use nabla operator in PAW spheres
   LVEL    =     F    velocity operator in full k-point grid
   LINTERFAST=   F  fast interpolation
   KINTER  =     0    interpolate to denser k-point grid
   CSHIFT  =0.1000    complex shift for real part using Kramers Kronig
   OMEGAMAX=  -1.0    maximum frequency
   DEG_THRESHOLD= 0.2000000E-02 threshold for treating states as degnerate
   RTIME   =    0.100 relaxation time in fs

 Orbital magnetization related:
   ORBITALMAG=     F  switch on orbital magnetization
   LCHIMAG   =     F  perturbation theory with respect to B field
   DQ        =  0.001000  dq finite difference perturbation B field



--------------------------------------------------------------------------------------------------------


 Static calculation
 charge density and potential will be updated during run
 non-spin polarized calculation
 Variant of blocked Davidson
 Davidson routine will perform the subspace rotation
 perform sub-space diagonalisation
    after iterative eigenvector-optimisation
 modified Broyden-mixing scheme, WC =      100.0
 initial mixing is a Kerker type mixing with AMIX =  0.4000 and BMIX =      1.0000
 Hartree-type preconditioning will be used
 using additional bands            8
 reciprocal scheme for non local part
 use partial core corrections
 calculate Harris-corrections to forces 
   (improved forces if not selfconsistent)
 use gradient corrections 
 use of overlap-Matrix (Vanderbilt PP)
 Fermi weights with tetrahedron method with Bloechl corrections


--------------------------------------------------------------------------------------------------------


  energy-cutoff  :      500.00
  volume of cell :        8.41
      direct lattice vectors                 reciprocal lattice vectors
    -1.613990000  0.000000000  1.613990000    -0.309791263 -0.309791263  0.309791263
     0.000000000  1.613990000  1.613990000     0.309791263  0.309791263  0.309791263
    -1.613990000  1.613990000  0.000000000    -0.309791263  0.309791263 -0.309791263

  length of vectors
     2.282526548  2.282526548  2.282526548     0.536574207  0.536574207  0.536574207


 
 k-points in units of 2pi/SCALE and weight: Auto Kmesh                              
   0.00000000  0.00000000  0.00000000       0.001
  -0.02581594 -0.02581594  0.02581594       0.005
  -0.05163188 -0.05163188  0.05163188       0.005
  -0.07744782 -0.07744782  0.07744782       0.005
  -0.10326375 -0.10326375  0.10326375       0.005
  -0.12907969 -0.12907969  0.12907969       0.005
  -0.15489563 -0.15489563  0.15489563       0.002
   0.00000000  0.00000000  0.05163188       0.003
  -0.02581594 -0.02581594  0.07744782       0.014
  -0.05163188 -0.05163188  0.10326375       0.014
  -0.07744782 -0.07744782  0.12907969       0.014
  -0.10326375 -0.10326375  0.15489563       0.014
  -0.12907969 -0.12907969  0.18071157       0.014
   0.15489563  0.15489563 -0.10326375       0.014
   0.12907969  0.12907969 -0.07744782       0.014
   0.10326375  0.10326375 -0.05163188       0.014
   0.07744782  0.07744782 -0.02581594       0.014
   0.05163188  0.05163188  0.00000000       0.007
   0.00000000  0.00000000  0.10326375       0.003
  -0.02581594 -0.02581594  0.12907969       0.014
  -0.05163188 -0.05163188  0.15489563       0.014
  -0.07744782 -0.07744782  0.18071157       0.014
  -0.10326375 -0.10326375  0.20652751       0.014
   0.18071157  0.18071157 -0.07744782       0.014
   0.15489563  0.15489563 -0.05163188       0.014
   0.12907969  0.12907969 -0.02581594       0.014
   0.10326375  0.10326375  0.00000000       0.007
   0.00000000  0.00000000  0.15489563       0.003
  -0.02581594 -0.02581594  0.18071157       0.014
  -0.05163188 -0.05163188  0.20652751       0.014
  -0.07744782 -0.07744782  0.23234345       0.014
   0.20652751  0.20652751 -0.05163188       0.014
   0.18071157  0.18071157 -0.02581594       0.014
   0.15489563  0.15489563  0.00000000       0.007
   0.00000000  0.00000000  0.20652751       0.003
  -0.02581594 -0.02581594  0.23234345       0.014
  -0.05163188 -0.05163188  0.25815939       0.014
   0.23234345  0.23234345 -0.02581594       0.014
   0.20652751  0.20652751  0.00000000       0.007
   0.00000000  0.00000000  0.25815939       0.003
  -0.02581594 -0.02581594  0.28397532       0.014
   0.25815939  0.25815939  0.00000000       0.007
   0.00000000  0.00000000  0.30979126       0.002
  -0.05163188  0.00000000  0.10326375       0.014
  -0.07744782 -0.02581594  0.12907969       0.028
  -0.10326375 -0.05163188  0.15489563       0.028
  -0.12907969 -0.07744782  0.18071157       0.028
   0.15489563  0.20652751 -0.10326375       0.014
  -0.05163188  0.00000000  0.15489563       0.014
  -0.07744782 -0.02581594  0.18071157       0.028
  -0.10326375 -0.05163188  0.20652751       0.028
   0.18071157  0.23234345 -0.07744782       0.028
   0.15489563  0.20652751 -0.05163188       0.028
   0.12907969  0.18071157 -0.02581594       0.028
   0.10326375  0.15489563  0.00000000       0.014
  -0.05163188 -0.00000000  0.20652751       0.014
  -0.07744782 -0.02581594  0.23234345       0.028
   0.20652751  0.25815939 -0.05163188       0.028
   0.18071157  0.23234345 -0.02581594       0.028
   0.15489563  0.20652751 -0.00000000       0.014
  -0.05163188  0.00000000  0.25815939       0.014
   0.23234345  0.28397532 -0.02581594       0.028
   0.20652751  0.25815939  0.00000000       0.014
   0.25815939  0.30979126 -0.00000000       0.007
  -0.10326375  0.00000000  0.20652751       0.014
   0.18071157  0.28397532 -0.07744782       0.028
   0.15489563  0.25815939 -0.05163188       0.014
   0.20652751  0.30979126 -0.05163188       0.014
   0.18071157  0.28397532 -0.02581594       0.028
   0.15489563  0.25815939  0.00000000       0.014
   0.20652751  0.30979126 -0.00000000       0.007
   0.15489563  0.30979126  0.00000000       0.003
 
 k-points in reciprocal lattice and weights: Auto Kmesh                              
   0.00000000  0.00000000  0.00000000       0.001
   0.08333333  0.00000000  0.00000000       0.005
   0.16666667  0.00000000  0.00000000       0.005
   0.25000000  0.00000000  0.00000000       0.005
   0.33333333  0.00000000  0.00000000       0.005
   0.41666667  0.00000000  0.00000000       0.005
   0.50000000  0.00000000  0.00000000       0.002
   0.08333333  0.08333333  0.00000000       0.003
   0.16666667  0.08333333  0.00000000       0.014
   0.25000000  0.08333333  0.00000000       0.014
   0.33333333  0.08333333  0.00000000       0.014
   0.41666667  0.08333333  0.00000000       0.014
   0.50000000  0.08333333  0.00000000       0.014
  -0.41666667  0.08333333  0.00000000       0.014
  -0.33333333  0.08333333  0.00000000       0.014
  -0.25000000  0.08333333  0.00000000       0.014
  -0.16666667  0.08333333  0.00000000       0.014
  -0.08333333  0.08333333  0.00000000       0.007
   0.16666667  0.16666667  0.00000000       0.003
   0.25000000  0.16666667  0.00000000       0.014
   0.33333333  0.16666667  0.00000000       0.014
   0.41666667  0.16666667  0.00000000       0.014
   0.50000000  0.16666667  0.00000000       0.014
  -0.41666667  0.16666667  0.00000000       0.014
  -0.33333333  0.16666667  0.00000000       0.014
  -0.25000000  0.16666667  0.00000000       0.014
  -0.16666667  0.16666667  0.00000000       0.007
   0.25000000  0.25000000  0.00000000       0.003
   0.33333333  0.25000000  0.00000000       0.014
   0.41666667  0.25000000  0.00000000       0.014
   0.50000000  0.25000000  0.00000000       0.014
  -0.41666667  0.25000000  0.00000000       0.014
  -0.33333333  0.25000000  0.00000000       0.014
  -0.25000000  0.25000000  0.00000000       0.007
   0.33333333  0.33333333  0.00000000       0.003
   0.41666667  0.33333333  0.00000000       0.014
   0.50000000  0.33333333  0.00000000       0.014
  -0.41666667  0.33333333  0.00000000       0.014
  -0.33333333  0.33333333  0.00000000       0.007
   0.41666667  0.41666667  0.00000000       0.003
   0.50000000  0.41666667  0.00000000       0.014
  -0.41666667  0.41666667  0.00000000       0.007
   0.50000000  0.50000000  0.00000000       0.002
   0.25000000  0.16666667  0.08333333       0.014
   0.33333333  0.16666667  0.08333333       0.028
   0.41666667  0.16666667  0.08333333       0.028
   0.50000000  0.16666667  0.08333333       0.028
  -0.41666667  0.16666667  0.08333333       0.014
   0.33333333  0.25000000  0.08333333       0.014
   0.41666667  0.25000000  0.08333333       0.028
   0.50000000  0.25000000  0.08333333       0.028
  -0.41666667  0.25000000  0.08333333       0.028
  -0.33333333  0.25000000  0.08333333       0.028
  -0.25000000  0.25000000  0.08333333       0.028
  -0.16666667  0.25000000  0.08333333       0.014
   0.41666667  0.33333333  0.08333333       0.014
   0.50000000  0.33333333  0.08333333       0.028
  -0.41666667  0.33333333  0.08333333       0.028
  -0.33333333  0.33333333  0.08333333       0.028
  -0.25000000  0.33333333  0.08333333       0.014
   0.50000000  0.41666667  0.08333333       0.014
  -0.41666667  0.41666667  0.08333333       0.028
  -0.33333333  0.41666667  0.08333333       0.014
  -0.41666667  0.50000000  0.08333333       0.007
   0.50000000  0.33333333  0.16666667       0.014
  -0.41666667  0.33333333  0.16666667       0.028
  -0.33333333  0.33333333  0.16666667       0.014
  -0.41666667  0.41666667  0.16666667       0.014
  -0.33333333  0.41666667  0.16666667       0.028
  -0.25000000  0.41666667  0.16666667       0.014
  -0.33333333  0.50000000  0.16666667       0.007
  -0.25000000  0.50000000  0.25000000       0.003
 
 position of ions in fractional coordinates (direct lattice) 
   0.87500000  0.87500000  0.87500000
   0.12500000  0.12500000  0.12500000
 
 position of ions in cartesian coordinates  (Angst):
  -2.82448250  2.82448250  2.82448250
  -0.40349750  0.40349750  0.40349750
 


--------------------------------------------------------------------------------------------------------


 k-point  1 :   0.0000 0.0000 0.0000  plane waves:     181
 k-point  2 :   0.0833 0.0000 0.0000  plane waves:     202
 k-point  3 :   0.1667 0.0000 0.0000  plane waves:     205
 k-point  4 :   0.2500 0.0000 0.0000  plane waves:     205
 k-point  5 :   0.3333 0.0000 0.0000  plane waves:     205
 k-point  6 :   0.4167 0.0000 0.0000  plane waves:     213
 k-point  7 :   0.5000 0.0000 0.0000  plane waves:     210
 k-point  8 :   0.0833 0.0833 0.0000  plane waves:     198
 k-point  9 :   0.1667 0.0833 0.0000  plane waves:     209
 k-point 10 :   0.2500 0.0833 0.0000  plane waves:     208
 k-point 11 :   0.3333 0.0833 0.0000  plane waves:     211
 k-point 12 :   0.4167 0.0833 0.0000  plane waves:     216
 k-point 13 :   0.5000 0.0833 0.0000  plane waves:     219
 k-point 14 :  -0.4167 0.0833 0.0000  plane waves:     219
 k-point 15 :  -0.3333 0.0833 0.0000  plane waves:     217
 k-point 16 :  -0.2500 0.0833 0.0000  plane waves:     211
 k-point 17 :  -0.1667 0.0833 0.0000  plane waves:     210
 k-point 18 :  -0.0833 0.0833 0.0000  plane waves:     212
 k-point 19 :   0.1667 0.1667 0.0000  plane waves:     210
 k-point 20 :   0.2500 0.1667 0.0000  plane waves:     209
 k-point 21 :   0.3333 0.1667 0.0000  plane waves:     214
 k-point 22 :   0.4167 0.1667 0.0000  plane waves:     213
 k-point 23 :   0.5000 0.1667 0.0000  plane waves:     217
 k-point 24 :  -0.4167 0.1667 0.0000  plane waves:     215
 k-point 25 :  -0.3333 0.1667 0.0000  plane waves:     215
 k-point 26 :  -0.2500 0.1667 0.0000  plane waves:     212
 k-point 27 :  -0.1667 0.1667 0.0000  plane waves:     208
 k-point 28 :   0.2500 0.2500 0.0000  plane waves:     218
 k-point 29 :   0.3333 0.2500 0.0000  plane waves:     215
 k-point 30 :   0.4167 0.2500 0.0000  plane waves:     215
 k-point 31 :   0.5000 0.2500 0.0000  plane waves:     214
 k-point 32 :  -0.4167 0.2500 0.0000  plane waves:     215
 k-point 33 :  -0.3333 0.2500 0.0000  plane waves:     215
 k-point 34 :  -0.2500 0.2500 0.0000  plane waves:     218
 k-point 35 :   0.3333 0.3333 0.0000  plane waves:     218
 k-point 36 :   0.4167 0.3333 0.0000  plane waves:     211
 k-point 37 :   0.5000 0.3333 0.0000  plane waves:     209
 k-point 38 :  -0.4167 0.3333 0.0000  plane waves:     219
 k-point 39 :  -0.3333 0.3333 0.0000  plane waves:     220
 k-point 40 :   0.4167 0.4167 0.0000  plane waves:     214
 k-point 41 :   0.5000 0.4167 0.0000  plane waves:     217
 k-point 42 :  -0.4167 0.4167 0.0000  plane waves:     214
 k-point 43 :   0.5000 0.5000 0.0000  plane waves:     222
 k-point 44 :   0.2500 0.1667 0.0833  plane waves:     208
 k-point 45 :   0.3333 0.1667 0.0833  plane waves:     210
 k-point 46 :   0.4167 0.1667 0.0833  plane waves:     212
 k-point 47 :   0.5000 0.1667 0.0833  plane waves:     216
 k-point 48 :  -0.4167 0.1667 0.0833  plane waves:     216
 k-point 49 :   0.3333 0.2500 0.0833  plane waves:     214
 k-point 50 :   0.4167 0.2500 0.0833  plane waves:     215
 k-point 51 :   0.5000 0.2500 0.0833  plane waves:     218
 k-point 52 :  -0.4167 0.2500 0.0833  plane waves:     216
 k-point 53 :  -0.3333 0.2500 0.0833  plane waves:     213
 k-point 54 :  -0.2500 0.2500 0.0833  plane waves:     211
 k-point 55 :  -0.1667 0.2500 0.0833  plane waves:     212
 k-point 56 :   0.4167 0.3333 0.0833  plane waves:     213
 k-point 57 :   0.5000 0.3333 0.0833  plane waves:     213
 k-point 58 :  -0.4167 0.3333 0.0833  plane waves:     216
 k-point 59 :  -0.3333 0.3333 0.0833  plane waves:     217
 k-point 60 :  -0.2500 0.3333 0.0833  plane waves:     210
 k-point 61 :   0.5000 0.4167 0.0833  plane waves:     212
 k-point 62 :  -0.4167 0.4167 0.0833  plane waves:     214
 k-point 63 :  -0.3333 0.4167 0.0833  plane waves:     217
 k-point 64 :  -0.4167 0.5000 0.0833  plane waves:     214
 k-point 65 :   0.5000 0.3333 0.1667  plane waves:     210
 k-point 66 :  -0.4167 0.3333 0.1667  plane waves:     215
 k-point 67 :  -0.3333 0.3333 0.1667  plane waves:     212
 k-point 68 :  -0.4167 0.4167 0.1667  plane waves:     212
 k-point 69 :  -0.3333 0.4167 0.1667  plane waves:     213
 k-point 70 :  -0.2500 0.4167 0.1667  plane waves:     214
 k-point 71 :  -0.3333 0.5000 0.1667  plane waves:     212
 k-point 72 :  -0.2500 0.5000 0.2500  plane waves:     208

 maximum and minimum number of plane-waves per node :       222      181

 maximum number of plane-waves:       222
 maximum index in each direction: 
   IXMAX=    4   IYMAX=    4   IZMAX=    4
   IXMIN=   -4   IYMIN=   -4   IZMIN=   -4

 NGX is ok and might be reduce to  18
 NGY is ok and might be reduce to  18
 NGZ is ok and might be reduce to  18

 serial   3D FFT for wavefunctions
 parallel 3D FFT for charge:
    minimum data exchange during FFTs selected (reduces bandwidth)


 total amount of memory used by VASP on root node    32936. kBytes
========================================================================

   base      :      30000. kBytes
   nonl-proj :       1039. kBytes
   fftplans  :        437. kBytes
   grid      :        625. kBytes
   one-center:          6. kBytes
   wavefun   :        829. kBytes
 
 Broyden mixing: mesh for mixing (old mesh)
   NGX =  9   NGY =  9   NGZ =  9
  (NGX  = 28   NGY  = 28   NGZ  = 28)
  gives a total of    729 points

 initial charge density was supplied:
 charge density of overlapping atoms calculated
 number of electron       8.0000000 magnetization 
 keeping initial charge density in first step


--------------------------------------------------------------------------------------------------------


 Maximum index for augmentation-charges          944 (set IRDMAX)


--------------------------------------------------------------------------------------------------------


 First call to EWALD:  gamma=   0.872
 Maximum number of real-space cells 3x 3x 3
 Maximum number of reciprocal cells 3x 3x 3

 FEWALD executed in parallel
    FEWALD:  cpu time    0.00: real time    0.00


----------------------------------------- Iteration    1(   1)  ---------------------------------------


    POTLOK:  cpu time    0.01: real time    0.01
    SETDIJ:  cpu time    0.00: real time    0.00
     EDDAV:  cpu time    0.45: real time    0.45
 BZINTS: Fermi energy: 20.637965;  8.000000 electrons
         Band energy:  34.328552;  BLOECHL correction: -0.001994
       DOS:  cpu time    0.01: real time    0.01
    --------------------------------------------
      LOOP:  cpu time    0.47: real time    0.47

 eigenvalue-minimisations  :  1860
 total energy-change (2. order) :-0.1467162E+00  (-0.4331165E+03)
 number of electron       8.0000000 magnetization 
 augmentation part        8.0000000 magnetization 

 Free energy of the ion-electron system (eV)
  ---------------------------------------------------
  alpha Z        PSCENC =        39.07668222
  Ewald energy   TEWEN  =      -384.48191759
  -1/2 Hartree   DENC   =       -11.71056808
  -exchange  EXHF       =         0.00000000
  -V(xc)+E(xc)   XCENC  =        29.48250372
  PAW double counting   =       217.04409276     -218.18290438
  entropy T*S    EENTRO =         0.00000000
  eigenvalues    EBANDS =        34.32855182
  atomic energy  EATOM  =       294.29684335
  ---------------------------------------------------
  free energy    TOTEN  =        -0.14671619 eV

  energy without entropy =       -0.14671619  energy(sigma->0) =       -0.14671619


--------------------------------------------------------------------------------------------------------




----------------------------------------- Iteration    1(   2)  ---------------------------------------


     EDDAV:  cpu time    0.51: real time    0.51
 BZINTS: Fermi energy: 12.618464;  8.000000 electrons
         Band energy:  16.847438;  BLOECHL correction:  0.000000
       DOS:  cpu time    0.00: real time    0.00
    --------------------------------------------
      LOOP:  cpu time    0.51: real time    0.52

 eigenvalue-minimisations  :  2188
 total energy-change (2. order) :-0.1748111E+02  (-0.1703334E+02)
 number of electron       8.0000000 magnetization 
 augmentation part        8.0000000 magnetization 

 Free energy of the ion-electron system (eV)
  ---------------------------------------------------
  alpha Z        PSCENC =        39.07668222
  Ewald energy   TEWEN  =      -384.48191759
  -1/2 Hartree   DENC   =       -11.71056808
  -exchange  EXHF       =         0.00000000
  -V(xc)+E(xc)   XCENC  =        29.48250372
  PAW double counting   =       217.04409276     -218.18290438
  entropy T*S    EENTRO =         0.00000000
  eigenvalues    EBANDS =        16.84743830
  atomic energy  EATOM  =       294.29684335
  ---------------------------------------------------
  free energy    TOTEN  =       -17.62782971 eV

  energy without entropy =      -17.62782971  energy(sigma->0) =      -17.62782971


--------------------------------------------------------------------------------------------------------




----------------------------------------- Iteration    1(   3)  ---------------------------------------


     EDDAV:  cpu time    0.47: real time    0.47
 BZINTS: Fermi energy: 12.744517;  8.000000 electrons
         Band energy:  16.618735;  BLOECHL correction:  0.000000
       DOS:  cpu time    0.00: real time    0.00
    --------------------------------------------
      LOOP:  cpu time    0.47: real time    0.48

 eigenvalue-minimisations  :  1972
 total energy-change (2. order) :-0.2287036E+00  (-0.2284306E+00)
 number of electron       8.0000000 magnetization 
 augmentation part        8.0000000 magnetization 

 Free energy of the ion-electron system (eV)
  ---------------------------------------------------
  alpha Z        PSCENC =        39.07668222
  Ewald energy   TEWEN  =      -384.48191759
  -1/2 Hartree   DENC   =       -11.71056808
  -exchange  EXHF       =         0.00000000
  -V(xc)+E(xc)   XCENC  =        29.48250372
  PAW double counting   =       217.04409276     -218.18290438
  entropy T*S    EENTRO =         0.00000000
  eigenvalues    EBANDS =        16.61873468
  atomic energy  EATOM  =       294.29684335
  ---------------------------------------------------
  free energy    TOTEN  =       -17.85653332 eV

  energy without entropy =      -17.85653332  energy(sigma->0) =      -17.85653332


--------------------------------------------------------------------------------------------------------




----------------------------------------- Iteration    1(   4)  ---------------------------------------


     EDDAV:  cpu time    0.45: real time    0.45
 BZINTS: Fermi energy: 12.735342;  8.000000 electrons
         Band energy:  16.618574;  BLOECHL correction:  0.000000
       DOS:  cpu time    0.00: real time    0.00
    --------------------------------------------
      LOOP:  cpu time    0.46: real time    0.46

 eigenvalue-minimisations  :  1876
 total energy-change (2. order) :-0.1604760E-03  (-0.1604752E-03)
 number of electron       8.0000000 magnetization 
 augmentation part        8.0000000 magnetization 

 Free energy of the ion-electron system (eV)
  ---------------------------------------------------
  alpha Z        PSCENC =        39.07668222
  Ewald energy   TEWEN  =      -384.48191759
  -1/2 Hartree   DENC   =       -11.71056808
  -exchange  EXHF       =         0.00000000
  -V(xc)+E(xc)   XCENC  =        29.48250372
  PAW double counting   =       217.04409276     -218.18290438
  entropy T*S    EENTRO =         0.00000000
  eigenvalues    EBANDS =        16.61857421
  atomic energy  EATOM  =       294.29684335
  ---------------------------------------------------
  free energy    TOTEN  =       -17.85669380 eV

  energy without entropy =      -17.85669380  energy(sigma->0) =      -17.85669380


--------------------------------------------------------------------------------------------------------




----------------------------------------- Iteration    1(   5)  ---------------------------------------


     EDDAV:  cpu time    0.47: real time    0.47
 BZINTS: Fermi energy: 12.735308;  8.000000 electrons
         Band energy:  16.618574;  BLOECHL correction:  0.000000
       DOS:  cpu time    0.00: real time    0.00
    CHARGE:  cpu time    0.02: real time    0.02
    MIXING:  cpu time    0.00: real time    0.00
    --------------------------------------------
      LOOP:  cpu time    0.49: real time    0.50

 eigenvalue-minimisations  :  1968
 total energy-change (2. order) :-0.9679263E-07  (-0.9677327E-07)
 number of electron       8.0000002 magnetization 
 augmentation part        0.2648252 magnetization 

 Broyden mixing:
  rms(total) = 0.80832E+00    rms(broyden)= 0.80827E+00
  rms(prec ) = 0.27817E+01
  weight for this iteration     100.00

 Free energy of the ion-electron system (eV)
  ---------------------------------------------------
  alpha Z        PSCENC =        39.07668222
  Ewald energy   TEWEN  =      -384.48191759
  -1/2 Hartree   DENC   =       -11.71056808
  -exchange  EXHF       =         0.00000000
  -V(xc)+E(xc)   XCENC  =        29.48250372
  PAW double counting   =       217.04409276     -218.18290438
  entropy T*S    EENTRO =         0.00000000
  eigenvalues    EBANDS =        16.61857411
  atomic energy  EATOM  =       294.29684335
  ---------------------------------------------------
  free energy    TOTEN  =       -17.85669389 eV

  energy without entropy =      -17.85669389  energy(sigma->0) =      -17.85669389


--------------------------------------------------------------------------------------------------------




----------------------------------------- Iteration    1(   6)  ---------------------------------------


    POTLOK:  cpu time    0.01: real time    0.01
    SETDIJ:  cpu time    0.00: real time    0.00
     EDDAV:  cpu time    0.43: real time    0.43
 BZINTS: Fermi energy: 13.560424;  8.000000 electrons
         Band energy:  22.062674;  BLOECHL correction:  0.000000
       DOS:  cpu time    0.00: real time    0.00
    CHARGE:  cpu time    0.02: real time    0.02
    MIXING:  cpu time    0.00: real time    0.00
    --------------------------------------------
      LOOP:  cpu time    0.46: real time    0.47

 eigenvalue-minimisations  :  1772
 total energy-change (2. order) : 0.1031845E+01  (-0.4897253E-01)
 number of electron       8.0000002 magnetization 
 augmentation part        0.2571095 magnetization 

 Broyden mixing:
  rms(total) = 0.48941E+00    rms(broyden)= 0.48941E+00
  rms(prec ) = 0.14825E+01
  weight for this iteration     100.00

 eigenvalues of (default mixing * dielectric matrix)
  average eigenvalue GAMMA=   2.3091
  2.3091

 Free energy of the ion-electron system (eV)
  ---------------------------------------------------
  alpha Z        PSCENC =        39.07668222
  Ewald energy   TEWEN  =      -384.48191759
  -1/2 Hartree   DENC   =       -16.32277788
  -exchange  EXHF       =         0.00000000
  -V(xc)+E(xc)   XCENC  =        29.89876540
  PAW double counting   =       485.97341254     -487.32853006
  entropy T*S    EENTRO =         0.00000000
  eigenvalues    EBANDS =        22.06267358
  atomic energy  EATOM  =       294.29684335
  ---------------------------------------------------
  free energy    TOTEN  =       -16.82484845 eV

  energy without entropy =      -16.82484845  energy(sigma->0) =      -16.82484845


--------------------------------------------------------------------------------------------------------




----------------------------------------- Iteration    1(   7)  ---------------------------------------


    POTLOK:  cpu time    0.01: real time    0.01
    SETDIJ:  cpu time    0.00: real time    0.00
     EDDAV:  cpu time    0.45: real time    0.45
 BZINTS: Fermi energy: 14.720141;  8.000000 electrons
         Band energy:  28.109276;  BLOECHL correction:  0.000000
       DOS:  cpu time    0.00: real time    0.00
    CHARGE:  cpu time    0.02: real time    0.02
    MIXING:  cpu time    0.00: real time    0.00
    --------------------------------------------
      LOOP:  cpu time    0.48: real time    0.48

 eigenvalue-minimisations  :  1832
 total energy-change (2. order) : 0.3436109E+00  (-0.5677437E-01)
 number of electron       8.0000002 magnetization 
 augmentation part        0.2487265 magnetization 

 Broyden mixing:
  rms(total) = 0.13538E+00    rms(broyden)= 0.13538E+00
  rms(prec ) = 0.16455E+00
  weight for this iteration     100.00

 eigenvalues of (default mixing * dielectric matrix)
  average eigenvalue GAMMA=   2.3225
  2.0125  2.6326

 Free energy of the ion-electron system (eV)
  ---------------------------------------------------
  alpha Z        PSCENC =        39.07668222
  Ewald energy   TEWEN  =      -384.48191759
  -1/2 Hartree   DENC   =       -22.36909475
  -exchange  EXHF       =         0.00000000
  -V(xc)+E(xc)   XCENC  =        30.45376330
  PAW double counting   =      1048.38291257    -1049.94970284
  entropy T*S    EENTRO =         0.00000000
  eigenvalues    EBANDS =        28.10927619
  atomic energy  EATOM  =       294.29684335
  ---------------------------------------------------
  free energy    TOTEN  =       -16.48123756 eV

  energy without entropy =      -16.48123756  energy(sigma->0) =      -16.48123756


--------------------------------------------------------------------------------------------------------




----------------------------------------- Iteration    1(   8)  ---------------------------------------


    POTLOK:  cpu time    0.00: real time    0.01
    SETDIJ:  cpu time    0.00: real time    0.00
     EDDAV:  cpu time    0.44: real time    0.44
 BZINTS: Fermi energy: 14.744288;  8.000000 electrons
         Band energy:  28.198522;  BLOECHL correction:  0.000000
       DOS:  cpu time    0.00: real time    0.00
    CHARGE:  cpu time    0.02: real time    0.02
    MIXING:  cpu time    0.00: real time    0.00
    --------------------------------------------
      LOOP:  cpu time    0.47: real time    0.48

 eigenvalue-minimisations  :  1828
 total energy-change (2. order) :-0.2775814E-02  (-0.1478850E-02)
 number of electron       8.0000002 magnetization 
 augmentation part        0.2484893 magnetization 

 Broyden mixing:
  rms(total) = 0.56464E-02    rms(broyden)= 0.56417E-02
  rms(prec ) = 0.14942E-01
  weight for this iteration     100.00

 eigenvalues of (default mixing * dielectric matrix)
  average eigenvalue GAMMA=   1.9436
  1.2266  2.1166  2.4875

 Free energy of the ion-electron system (eV)
  ---------------------------------------------------
  alpha Z        PSCENC =        39.07668222
  Ewald energy   TEWEN  =      -384.48191759
  -1/2 Hartree   DENC   =       -22.51841434
  -exchange  EXHF       =         0.00000000
  -V(xc)+E(xc)   XCENC  =        30.47461830
  PAW double counting   =      1272.38674561    -1273.91709337
  entropy T*S    EENTRO =         0.00000000
  eigenvalues    EBANDS =        28.19852245
  atomic energy  EATOM  =       294.29684335
  ---------------------------------------------------
  free energy    TOTEN  =       -16.48401337 eV

  energy without entropy =      -16.48401337  energy(sigma->0) =      -16.48401337


--------------------------------------------------------------------------------------------------------




----------------------------------------- Iteration    1(   9)  ---------------------------------------


    POTLOK:  cpu time    0.00: real time    0.01
    SETDIJ:  cpu time    0.00: real time    0.00
     EDDAV:  cpu time    0.46: real time    0.46
 BZINTS: Fermi energy: 14.742512;  8.000000 electrons
         Band energy:  28.156089;  BLOECHL correction:  0.000000
       DOS:  cpu time    0.00: real time    0.00
    --------------------------------------------
      LOOP:  cpu time    0.47: real time    0.48

 eigenvalue-minimisations  :  1948
 total energy-change (2. order) :-0.6916432E-05  (-0.5379714E-05)
 number of electron       8.0000002 magnetization 
 augmentation part        0.2484893 magnetization 

 Free energy of the ion-electron system (eV)
  ---------------------------------------------------
  alpha Z        PSCENC =        39.07668222
  Ewald energy   TEWEN  =      -384.48191759
  -1/2 Hartree   DENC   =       -22.47576323
  -exchange  EXHF       =         0.00000000
  -V(xc)+E(xc)   XCENC  =        30.47092575
  PAW double counting   =      1269.45500744    -1270.98188710
  entropy T*S    EENTRO =         0.00000000
  eigenvalues    EBANDS =        28.15608889
  atomic energy  EATOM  =       294.29684335
  ---------------------------------------------------
  free energy    TOTEN  =       -16.48402029 eV

  energy without entropy =      -16.48402029  energy(sigma->0) =      -16.48402029


--------------------------------------------------------------------------------------------------------




 average (electrostatic) potential at core
  the test charge radii are     0.6991
  (the norm of the test charge is              1.0000)
       1 -40.8520       2 -40.8520
 
 
 
 E-fermi :  14.7425     XC(G=0): -14.8112     alpha+bet :-23.8378


 k-point   1 :       0.0000    0.0000    0.0000
  band No.  band energies     occupation 
      1     -11.3710      2.00000
      2      14.5731      2.00000
      3      14.5731      2.00000
      4      14.5731      2.00000
      5      20.9977      0.00000
      6      20.9977      0.00000
      7      20.9977      0.00000
      8      35.3550      0.00000
      9      38.2289      0.00000
     10      44.7014      0.00000
     11      44.7014      0.00000
     12      45.7513      0.00000

 k-point   2 :       0.0833    0.0000    0.0000
  band No.  band energies     occupation 
      1     -11.1380      2.00000
      2      12.9846      2.00000
      3      14.1236      2.00000
      4      14.1236      2.00000
      5      21.5832      0.00000
      6      21.5832      0.00000
      7      22.1294      0.00000
      8      35.1505      0.00000
      9      38.5716      0.00000
     10      41.9435      0.00000
     11      41.9435      0.00000
     12      45.5791      0.00000

 k-point   3 :       0.1667    0.0000    0.0000
  band No.  band energies     occupation 
      1     -10.4394      2.00000
      2       9.8331      2.00000
      3      13.1826      2.00000
      4      13.1826      2.00000
      5      22.8030      0.00000
      6      22.8030      0.00000
      7      24.0116      0.00000
      8      34.6327      0.00000
      9      39.3292      0.00000
     10      39.9650      0.00000
     11      39.9650      0.00000
     12      45.5220      0.00000

 k-point   4 :       0.2500    0.0000    0.0000
  band No.  band energies     occupation 
      1      -9.2809      2.00000
      2       6.3567      2.00000
      3      12.2427      2.00000
      4      12.2427      2.00000
      5      23.8309      0.00000
      6      23.8309      0.00000
      7      25.6350      0.00000
      8      33.9875      0.00000
      9      39.5991      0.00000
     10      39.5991      0.00000
     11      40.0591      0.00000
     12      45.8578      0.00000

 k-point   5 :       0.3333    0.0000    0.0000
  band No.  band energies     occupation 
      1      -7.6732      2.00000
      2       2.9465      2.00000
      3      11.5114      2.00000
      4      11.5114      2.00000
      5      24.2697      0.00000
      6      24.2697      0.00000
      7      26.8466      0.00000
      8      33.3969      0.00000
      9      40.6755      0.00000
     10      40.9777      0.00000
     11      40.9777      0.00000
     12      46.0662      0.00000

 k-point   6 :       0.4167    0.0000    0.0000
  band No.  band energies     occupation 
      1      -5.6432      2.00000
      2      -0.2135      2.00000
      3      11.0589      2.00000
      4      11.0589      2.00000
      5      24.2969      0.00000
      6      24.2969      0.00000
      7      27.6071      0.00000
      8      32.9941      0.00000
      9      41.2262      0.00000
     10      43.5104      0.00000
     11      43.5104      0.00000
     12      45.7983      0.00000

 k-point   7 :       0.5000    0.0000    0.0000
  band No.  band energies     occupation 
      1      -3.6376      2.00000
      2      -2.6025      2.00000
      3      10.9066      2.00000
      4      10.9066      2.00000
      5      24.2595      0.00000
      6      24.2595      0.00000
      7      27.8687      0.00000
      8      32.8551      0.00000
      9      41.5024      0.00000
     10      45.2202      0.00000
     11      45.2202      0.00000
     12      45.5647      0.00000

 k-point   8 :       0.0833    0.0833    0.0000
  band No.  band energies     occupation 
      1     -11.0602      2.00000
      2      13.2858      2.00000
      3      13.2858      2.00000
      4      13.9537      2.00000
      5      20.8058      0.00000
      6      22.5887      0.00000
      7      22.5887      0.00000
      8      34.6173      0.00000
      9      38.7086      0.00000
     10      40.2601      0.00000
     11      45.0989      0.00000
     12      46.4965      0.00000

 k-point   9 :       0.1667    0.0833    0.0000
  band No.  band energies     occupation 
      1     -10.5169      2.00000
      2      10.8877      2.00000
      3      12.2091      2.00000
      4      13.4775      2.00000
      5      21.2366      0.00000
      6      24.0275      0.00000
      7      24.2423      0.00000
      8      33.2386      0.00000
      9      39.3046      0.00000
     10      39.5015      0.00000
     11      43.2027      0.00000
     12      46.5701      0.00000

 k-point  10 :       0.2500    0.0833    0.0000
  band No.  band energies     occupation 
      1      -9.5119      2.00000
      2       7.5945      2.00000
      3      11.2757      2.00000
      4      12.6006      2.00000
      5      22.3245      0.00000
      6      25.2018      0.00000
      7      25.8426      0.00000
      8      32.2373      0.00000
      9      39.1497      0.00000
     10      40.2337      0.00000
     11      42.2508      0.00000
     12      46.4529      0.00000

 k-point  11 :       0.3333    0.0833    0.0000
  band No.  band energies     occupation 
      1      -8.0546      2.00000
      2       4.2015      2.00000
      3      10.6394      2.00000
      4      11.6223      2.00000
      5      23.1701      0.00000
      6      25.6758      0.00000
      7      27.0833      0.00000
      8      32.2113      0.00000
      9      39.2409      0.00000
     10      41.1919      0.00000
     11      42.9927      0.00000
     12      46.4680      0.00000

 k-point  12 :       0.4167    0.0833    0.0000
  band No.  band energies     occupation 
      1      -6.1642      2.00000
      2       0.9757      2.00000
      3      10.3523      2.00000
      4      10.7786      2.00000
      5      23.5353      0.00000
      6      25.5337      0.00000
      7      27.9763      0.00000
      8      32.7518      0.00000
      9      39.7073      0.00000
     10      42.7028      0.00000
     11      44.8516      0.00000
     12      46.1339      0.00000

 k-point  13 :       0.5000    0.0833    0.0000
  band No.  band energies     occupation 
      1      -3.9417      2.00000
      2      -1.8717      2.00000
      3      10.1773      2.00000
      4      10.4199      2.00000
      5      23.7845      0.00000
      6      25.1571      0.00000
      7      28.4184      0.00000
      8      33.1753      0.00000
      9      40.2732      0.00000
     10      44.8486      0.00000
     11      45.3627      0.00000
     12      45.6985      0.00000

 k-point  14 :      -0.4167    0.0833    0.0000
  band No.  band energies     occupation 
      1      -4.6954      2.00000
      2      -0.9905      2.00000
      3       9.8775      2.00000
      4      10.8215      2.00000
      5      24.1786      0.00000
      6      24.7876      0.00000
      7      28.3104      0.00000
      8      33.3062      0.00000
      9      40.4305      0.00000
     10      42.6819      0.00000
     11      45.6932      0.00000
     12      46.2594      0.00000

 k-point  15 :      -0.3333    0.0833    0.0000
  band No.  band energies     occupation 
      1      -6.8409      2.00000
      2       2.0276      2.00000
      3       9.9149      2.00000
      4      11.5157      2.00000
      5      24.3965      0.00000
      6      24.6772      0.00000
      7      27.6391      0.00000
      8      33.2324      0.00000
      9      39.6556      0.00000
     10      40.2690      0.00000
     11      44.7852      0.00000
     12      46.5669      0.00000

 k-point  16 :      -0.2500    0.0833    0.0000
  band No.  band energies     occupation 
      1      -8.5899      2.00000
      2       5.3350      2.00000
      3      10.3046      2.00000
      4      12.4312      2.00000
      5      23.7338      0.00000
      6      24.9378      0.00000
      7      26.4699      0.00000
      8      33.1991      0.00000
      9      37.8001      0.00000
     10      40.0957      0.00000
     11      43.2181      0.00000
     12      46.8643      0.00000

 k-point  17 :      -0.1667    0.0833    0.0000
  band No.  band energies     occupation 
      1      -9.8979      2.00000
      2       8.7439      2.00000
      3      11.0346      2.00000
      4      13.4240      2.00000
      5      22.6677      0.00000
      6      24.4061      0.00000
      7      24.9840      0.00000
      8      33.6361      0.00000
      9      37.6627      0.00000
     10      39.7210      0.00000
     11      42.3752      0.00000
     12      47.1076      0.00000

 k-point  18 :      -0.0833    0.0833    0.0000
  band No.  band energies     occupation 
      1     -10.7497      2.00000
      2      11.7826      2.00000
      3      12.1727      2.00000
      4      14.1630      2.00000
      5      21.6677      0.00000
      6      23.0001      0.00000
      7      23.4224      0.00000
      8      34.5411      0.00000
      9      39.0532      0.00000
     10      39.1668      0.00000
     11      42.3470      0.00000
     12      47.2880      0.00000

 k-point  19 :       0.1667    0.1667    0.0000
  band No.  band energies     occupation 
      1     -10.1294      2.00000
      2      11.0566      2.00000
      3      11.0566      2.00000
      4      12.2255      2.00000
      5      20.3420      0.00000
      6      25.7037      0.00000
      7      25.7037      0.00000
      8      30.6559      0.00000
      9      39.9710      0.00000
     10      40.1186      0.00000
     11      46.2913      0.00000
     12      48.7166      0.00000

[...]
      9      38.7902      0.00000
     10      42.6645      0.00000
     11      45.9204      0.00000
     12      47.6355      0.00000

 k-point  48 :      -0.4167    0.1667    0.0833
  band No.  band energies     occupation 
      1      -3.1117      2.00000
      2      -1.9773      2.00000
      3       8.6982      2.00000
      4       9.6835      2.00000
      5      23.7075      0.00000
      6      25.7619      0.00000
      7      29.8282      0.00000
      8      33.5734      0.00000
      9      38.4140      0.00000
     10      45.0782      0.00000
     11      45.2551      0.00000
     12      46.3411      0.00000

 k-point  49 :       0.3333    0.2500    0.0833
  band No.  band energies     occupation 
      1      -8.2828      2.00000
      2       7.6468      2.00000
      3       8.1775      2.00000
      4      10.5346      2.00000
      5      21.1146      0.00000
      6      26.8199      0.00000
      7      28.8238      0.00000
      8      29.1491      0.00000
      9      41.1540      0.00000
     10      41.4447      0.00000
     11      46.0136      0.00000
     12      52.3540      0.00000

 k-point  50 :       0.4167    0.2500    0.0833
  band No.  band energies     occupation 
      1      -6.8394      2.00000
      2       4.9270      2.00000
      3       7.4401      2.00000
      4       9.4477      2.00000
      5      22.1850      0.00000
      6      26.4313      0.00000
      7      29.4392      0.00000
      8      30.7703      0.00000
      9      40.6790      0.00000
     10      42.2471      0.00000
     11      46.5545      0.00000
     12      51.5602      0.00000

 k-point  51 :       0.5000    0.2500    0.0833
  band No.  band energies     occupation 
      1      -4.9764      2.00000
      2       1.9620      2.00000
      3       7.1262      2.00000
      4       8.4878      2.00000
      5      22.7675      0.00000
      6      27.1788      0.00000
      7      30.1932      0.00000
      8      31.8592      0.00000
      9      39.1425      0.00000
     10      43.6182      0.00000
     11      46.8878      0.00000
     12      49.8986      0.00000

 k-point  52 :      -0.4167    0.2500    0.0833
  band No.  band energies     occupation 
      1      -2.8310      2.00000
      2      -0.7144      2.00000
      3       6.6669      2.00000
      4       8.3133      2.00000
      5      23.0940      0.00000
      6      27.3665      0.00000
      7      32.0018      0.00000
      8      32.5165      0.00000
      9      36.9722      0.00000
     10      44.8977      0.00000
     11      45.7515      0.00000
     12      48.7136      0.00000

 k-point  53 :      -0.3333    0.2500    0.0833
  band No.  band energies     occupation 
      1      -3.5554      2.00000
      2       0.1383      2.00000
      3       6.1716      2.00000
      4       8.9031      2.00000
      5      23.6252      0.00000
      6      26.8273      0.00000
      7      32.0126      0.00000
      8      33.4118      0.00000
      9      36.2109      0.00000
     10      42.4604      0.00000
     11      46.0445      0.00000
     12      49.9966      0.00000

 k-point  54 :      -0.2500    0.2500    0.0833
  band No.  band energies     occupation 
      1      -5.6465      2.00000
      2       3.0075      2.00000
      3       5.9813      2.00000
      4       9.8993      2.00000
      5      24.4153      0.00000
      6      25.7718      0.00000
      7      31.0213      0.00000
      8      31.8409      0.00000
      9      38.3513      0.00000
     10      40.1735      0.00000
     11      46.0494      0.00000
     12      51.9745      0.00000

 k-point  55 :      -0.1667    0.2500    0.0833
  band No.  band energies     occupation 
      1      -7.3714      2.00000
      2       5.8268      2.00000
      3       6.4279      2.00000
      4      11.0622      2.00000
      5      24.0326      0.00000
      6      25.5464      0.00000
      7      29.2927      0.00000
      8      30.8745      0.00000
      9      38.9715      0.00000
     10      40.0015      0.00000
     11      45.3949      0.00000
     12      53.8308      0.00000

 k-point  56 :       0.4167    0.3333    0.0833
  band No.  band energies     occupation 
      1      -6.1579      2.00000
      2       5.7243      2.00000
      3       6.7020      2.00000
      4       7.7280      2.00000
      5      20.7708      0.00000
      6      24.1299      0.00000
      7      31.3563      0.00000
      8      32.5505      0.00000
      9      42.0886      0.00000
     10      43.2179      0.00000
     11      49.1741      0.00000
     12      54.9223      0.00000

 k-point  57 :       0.5000    0.3333    0.0833
  band No.  band energies     occupation 
      1      -4.4527      2.00000
      2       3.5381      2.00000
      3       5.6174      2.00000
      4       6.9320      2.00000
      5      21.7554      0.00000
      6      24.9035      0.00000
      7      31.4478      0.00000
      8      33.8640      0.00000
      9      40.7152      0.00000
     10      43.8446      0.00000
     11      48.9130      0.00000
     12      52.6778      0.00000

 k-point  58 :      -0.4167    0.3333    0.0833
  band No.  band energies     occupation 
      1      -2.4065      2.00000
      2       1.0666      2.00000
      3       4.4687      2.00000
      4       7.0075      2.00000
      5      22.2008      0.00000
      6      27.5010      0.00000
      7      31.1264      0.00000
      8      34.2918      0.00000
      9      38.2613      0.00000
     10      44.3698      0.00000
     11      46.9150      0.00000
     12      51.9719      0.00000

 k-point  59 :      -0.3333    0.3333    0.0833
  band No.  band energies     occupation 
      1      -1.7866      2.00000
      2       0.4468      2.00000
      3       3.5958      2.00000
      4       7.6482      2.00000
      5      22.7538      0.00000
      6      29.0642      0.00000
      7      32.0587      0.00000
      8      33.7017      0.00000
      9      35.8259      0.00000
     10      42.8611      0.00000
     11      46.0400      0.00000
     12      52.8404      0.00000

 k-point  60 :      -0.2500    0.3333    0.0833
  band No.  band energies     occupation 
      1      -3.8293      2.00000
      2       2.7730      2.00000
      3       3.3907      2.00000
      4       8.6722      2.00000
      5      23.5961      0.00000
      6      27.6408      0.00000
      7      32.5681      0.00000
      8      33.3773      0.00000
      9      35.6538      0.00000
     10      40.8744      0.00000
     11      46.2198      0.00000
     12      53.5767      0.00000

 k-point  61 :       0.5000    0.4167    0.0833
  band No.  band energies     occupation 
      1      -3.4915      2.00000
      2       2.9391      2.00000
      3       5.8019      2.00000
      4       6.0281      2.00000
      5      20.7370      0.00000
      6      22.2285      0.00000
      7      34.0331      0.00000
      8      35.2245      0.00000
      9      42.5560      0.00000
     10      43.7873      0.00000
     11      51.2114      0.00000
     12      52.9414      0.00000

 k-point  62 :      -0.4167    0.4167    0.0833
  band No.  band energies     occupation 
      1      -1.5922      2.00000
      2       1.4679      2.00000
      3       3.8742      2.00000
      4       6.0577      2.00000
      5      21.5100      0.00000
      6      24.0382      0.00000
      7      33.7182      0.00000
      8      35.3587      0.00000
      9      40.7396      0.00000
     10      43.7417      0.00000
     11      48.8371      0.00000
     12      53.0930      0.00000

 k-point  63 :      -0.3333    0.4167    0.0833
  band No.  band energies     occupation 
      1      -0.2164      2.00000
      2       0.6806      2.00000
      3       2.1346      2.00000
      4       6.6537      2.00000
      5      21.9948      0.00000
      6      27.4218      0.00000
      7      32.3795      0.00000
      8      34.5076      0.00000
      9      38.3902      0.00000
     10      43.5765      0.00000
     11      46.5866      0.00000
     12      53.9655      0.00000

 k-point  64 :      -0.4167    0.5000    0.0833
  band No.  band energies     occupation 
      1      -0.3802      2.00000
      2      -0.3802      2.00000
      3       5.5428      2.00000
      4       5.5428      2.00000
      5      21.1667      0.00000
      6      21.1667      0.00000
      7      35.7901      0.00000
      8      35.7901      0.00000
      9      43.1998      0.00000
     10      43.1998      0.00000
     11      51.5263      0.00000
     12      51.5263      0.00000

 k-point  65 :       0.5000    0.3333    0.1667
  band No.  band energies     occupation 
      1      -5.2710      2.00000
      2       4.2990      2.00000
      3       5.0399      2.00000
      4       8.2298      2.00000
      5      23.8747      0.00000
      6      25.5214      0.00000
      7      29.9961      0.00000
      8      32.7993      0.00000
      9      39.4620      0.00000
     10      42.4301      0.00000
     11      46.9467      0.00000
     12      53.7195      0.00000

 k-point  66 :      -0.4167    0.3333    0.1667
  band No.  band energies     occupation 
      1      -3.3211      2.00000
      2       1.8516      2.00000
      3       4.7565      2.00000
      4       7.0966      2.00000
      5      24.4563      0.00000
      6      26.3744      0.00000
      7      30.7995      0.00000
      8      33.9975      0.00000
      9      37.0866      0.00000
     10      43.3549      0.00000
     11      47.0349      0.00000
     12      51.9173      0.00000

 k-point  67 :      -0.3333    0.3333    0.1667
  band No.  band energies     occupation 
      1      -1.5536      2.00000
      2      -0.1892      2.00000
      3       4.8608      2.00000
      4       6.5848      2.00000
      5      24.3303      0.00000
      6      27.1250      0.00000
      7      32.6651      0.00000
      8      32.8441      0.00000
      9      36.0306      0.00000
     10      44.1270      0.00000
     11      46.9431      0.00000
     12      50.8035      0.00000

 k-point  68 :      -0.4167    0.4167    0.1667
  band No.  band energies     occupation 
      1      -2.6613      2.00000
      2       2.7927      2.00000
      3       4.2256      2.00000
      4       5.3822      2.00000
      5      23.8471      0.00000
      6      24.7696      0.00000
      7      31.3312      0.00000
      8      34.7960      0.00000
      9      39.4378      0.00000
     10      43.3957      0.00000
     11      49.0802      0.00000
     12      52.2871      0.00000

 k-point  69 :      -0.3333    0.4167    0.1667
  band No.  band energies     occupation 
      1      -0.6933      2.00000
      2       1.1752      2.00000
      3       3.1896      2.00000
      4       5.0570      2.00000
      5      24.4379      0.00000
      6      27.0521      0.00000
      7      31.1462      0.00000
      8      33.0932      0.00000
      9      38.9964      0.00000
     10      43.0355      0.00000
     11      48.6021      0.00000
     12      52.0514      0.00000

 k-point  70 :      -0.2500    0.4167    0.1667
  band No.  band energies     occupation 
      1      -1.3847      2.00000
      2       1.7981      2.00000
      3       2.7154      2.00000
      4       5.8251      2.00000
      5      24.7930      0.00000
      6      27.5486      0.00000
      7      31.4021      0.00000
      8      32.5235      0.00000
      9      37.7741      0.00000
     10      43.1115      0.00000
     11      47.5517      0.00000
     12      52.7257      0.00000

 k-point  71 :      -0.3333    0.5000    0.1667
  band No.  band energies     occupation 
      1       0.2705      2.00000
      2       0.2705      2.00000
      3       4.1435      2.00000
      4       4.1435      2.00000
      5      24.1278      0.00000
      6      24.1278      0.00000
      7      33.4569      0.00000
      8      33.4569      0.00000
      9      41.6905      0.00000
     10      41.6905      0.00000
     11      50.7923      0.00000
     12      50.7923      0.00000

 k-point  72 :      -0.2500    0.5000    0.2500
  band No.  band energies     occupation 
      1       0.7925      2.00000
      2       0.7925      2.00000
      3       3.2954      2.00000
      4       3.2954      2.00000
      5      26.5374      0.00000
      6      26.5374      0.00000
      7      31.1488      0.00000
      8      31.1488      0.00000
      9      41.2075      0.00000
     10      41.2075      0.00000
     11      50.6049      0.00000
     12      50.6049      0.00000


--------------------------------------------------------------------------------------------------------


 soft charge-density along one line, spin component           1
         0         1         2         3         4         5         6         7         8         9
 total charge-density along one line
 
 pseudopotential strength for first ion, spin component:           1
  9.184   0.000  12.188   0.000  -0.000   0.000  -0.000   0.000   0.000   0.000   0.000   0.000   0.000   0.000  -0.000   0.000
 12.188   0.000  16.175   0.000  -0.000   0.000  -0.000   0.000   0.000   0.000   0.000   0.000   0.000   0.000  -0.000   0.000
 -0.000   0.000  -0.000   0.000  -3.407   0.000  -0.000   0.000   0.000   0.000   6.654   0.000   0.000   0.000  -0.000   0.000
 -0.000   0.000  -0.000   0.000  -0.000   0.000  -3.407   0.000   0.000   0.000   0.000   0.000   6.654   0.000  -0.000   0.000
  0.000   0.000   0.000   0.000   0.000   0.000   0.000   0.000  -3.407   0.000  -0.000   0.000  -0.000   0.000   6.654   0.000
  0.000   0.000   0.000   0.000   6.654   0.000   0.000   0.000  -0.000   0.000 -15.071   0.000  -0.000   0.000   0.000   0.000
  0.000   0.000   0.000   0.000   0.000   0.000   6.654   0.000  -0.000   0.000  -0.000   0.000 -15.071   0.000   0.000   0.000
 -0.000   0.000  -0.000   0.000  -0.000   0.000  -0.000   0.000   6.654   0.000   0.000   0.000   0.000   0.000 -15.071   0.000
 total augmentation occupancy for first ion, spin component:           1
 11.080  -5.442   0.000   0.000   0.000   0.000   0.000   0.000
 -5.442   2.762  -0.000  -0.000   0.000  -0.000  -0.000   0.000
 -0.000   0.000   1.939   0.000   0.000   0.181  -0.000   0.000
  0.000   0.000   0.000   1.939   0.000   0.000   0.181  -0.000
  0.000  -0.000   0.000   0.000   1.939   0.000  -0.000   0.181
  0.000   0.000   0.181  -0.000   0.000   0.020  -0.000  -0.000
  0.000  -0.000   0.000   0.181  -0.000   0.000   0.020   0.000
  0.000   0.000   0.000  -0.000   0.181   0.000   0.000   0.020


------------------------ aborting loop because EDIFF is reached ----------------------------------------


    CHARGE:  cpu time    0.02: real time    0.02
    FORLOC:  cpu time    0.00: real time    0.00
    FORNL :  cpu time    0.01: real time    0.01
    STRESS:  cpu time    0.06: real time    0.06
    FORCOR:  cpu time    0.01: real time    0.01
    FORHAR:  cpu time    0.00: real time    0.00
    MIXING:  cpu time    0.00: real time    0.00

  FORCE on cell =-STRESS in cart. coord.  units (eV):
  Direction    XX          YY          ZZ          XY          YZ          ZX
  --------------------------------------------------------------------------------------
  Alpha Z    39.07668    39.07668    39.07668
  Ewald    -128.16070  -128.16070  -128.16070     0.00000    -0.00000     0.00000
  Hartree     7.49572     7.49572     7.49572    -0.00000     0.00000    -0.00000
  E(xc)     -32.68854   -32.68854   -32.68854     0.00000    -0.00000     0.00000
  Local      -5.99991    -5.99991    -5.99991    -0.00004     0.00004    -0.00004
  n-local    -8.70007   -10.19042   -12.33112     0.07995     0.19092     0.36782
  augment    -1.09268    -1.09268    -1.09268     0.00003    -0.00003     0.00003
  Kinetic   136.28800   146.24344   148.85917    -5.09841     2.00686     0.74714
  Fock        0.00000     0.00000     0.00000     0.00000     0.00000     0.00000
  -------------------------------------------------------------------------------------
  Total      12.02023    12.02023    12.02023     0.00000    -0.00000    -0.00000
  in kB    2290.29276  2290.29276  2290.29276     0.00000    -0.00000    -0.00000
  external pressure =     2290.29 kB  Pullay stress =        0.00 kB


 VOLUME and BASIS-vectors are now :
 -----------------------------------------------------------------------------
  energy-cutoff  :      500.00
  volume of cell :        8.41
      direct lattice vectors                 reciprocal lattice vectors
    -1.613990000  0.000000000  1.613990000    -0.309791263 -0.309791263  0.309791263
     0.000000000  1.613990000  1.613990000     0.309791263  0.309791263  0.309791263
    -1.613990000  1.613990000  0.000000000    -0.309791263  0.309791263 -0.309791263

  length of vectors
     2.282526548  2.282526548  2.282526548     0.536574207  0.536574207  0.536574207


 FORCES acting on ions
    electron-ion (+dipol)            ewald-force                    non-local-force                 convergence-correction
 -----------------------------------------------------------------------------------------------
   0.578E-06 -.578E-06 -.578E-06   -.140E-13 0.150E-13 0.185E-13   -.798E-16 0.590E-16 0.590E-16   0.107E-06 -.107E-06 -.107E-06
   -.578E-06 0.578E-06 0.578E-06   0.138E-13 -.147E-13 -.194E-13   0.451E-16 0.382E-16 -.243E-16   -.107E-06 0.107E-06 0.107E-06
 -----------------------------------------------------------------------------------------------
   -.309E-14 0.222E-12 -.782E-14   -.134E-15 0.223E-15 -.987E-15   -.347E-16 0.971E-16 0.347E-16   -.676E-15 -.903E-15 0.227E-15
 
 
 POSITION                                       TOTAL-FORCE (eV/Angst)
 -----------------------------------------------------------------------------------
     -2.82448      2.82448      2.82448        -0.000000      0.000000      0.000000
     -0.40350      0.40350      0.40350         0.000000     -0.000000     -0.000000
 -----------------------------------------------------------------------------------
    total drift:                               -0.000000      0.000000     -0.000000


--------------------------------------------------------------------------------------------------------



  FREE ENERGIE OF THE ION-ELECTRON SYSTEM (eV)
  ---------------------------------------------------
  free  energy   TOTEN  =       -16.48402029 eV

  energy  without entropy=      -16.48402029  energy(sigma->0) =      -16.48402029
 


--------------------------------------------------------------------------------------------------------


    POTLOK:  cpu time    0.01: real time    0.01


--------------------------------------------------------------------------------------------------------


     LOOP+:  cpu time    4.49: real time    4.51
    4ORBIT:  cpu time    0.00: real time    0.00
 BZINTS: Fermi energy: 14.742512;  8.000000 electrons
         Band energy:  28.156089;  BLOECHL correction:  0.000000

 total amount of memory used by VASP on root node    32936. kBytes
========================================================================

   base      :      30000. kBytes
   nonl-proj :       1039. kBytes
   fftplans  :        437. kBytes
   grid      :        625. kBytes
   one-center:          6. kBytes
   wavefun   :        829. kBytes
 
  
  
 General timing and accounting informations for this job:
 ========================================================
  
                  Total CPU time used (sec):        5.161
                            User time (sec):        4.795
                          System time (sec):        0.366
                         Elapsed time (sec):        5.332
  
                   Maximum memory used (kb):       46576.
                   Average memory used (kb):           0.
  
                          Minor page faults:        18192
                          Major page faults:            1
                 Voluntary context switches:          606
