<?xml version="1.0" encoding="ISO-8859-1"?>
<modeling>
 <generator>
  <i name="program" type="string">vasp </i>
  <i name="version" type="string">5.3.3  </i>
  <i name="subversion" type="string">18Dez12 (build Oct 01 2014 18:44:37) complex                          parallel </i>
  <i name="platform" type="string">LinuxIFC </i>
  <i name="date" type="string">2014 10 29 </i>
  <i name="time" type="string">15:39:26 </i>
 </generator>
 <incar>
  <i type="int" name="ISTART">     0</i>
  <i type="string" name="PREC">high</i>
  <i type="string" name="ALGO"> Normal</i>
  <i type="int" name="ICHARG">     2</i>
  <i type="int" name="NELM">    50</i>
  <i type="int" name="NELMIN">     5</i>
  <i name="EDIFF">      0.00001000</i>
  <i type="int" name="NBANDS">    10</i>
  <i type="logical" name="LREAL"> F  </i>
  <i type="int" name="ISMEAR">    -5</i>
  <i type="logical" name="LWAVE"> F  </i>
  <i type="int" name="NELM">    50</i>
 </incar>
 <kpoints>
  <generation param="Gamma">
   <v type="int" name="divisions">      12       12       12 </v>
   <v name="usershift">      0.00000000       0.00000000       0.00000000 </v>
   <v name="genvec1">      0.08333333       0.00000000       0.00000000 </v>
   <v name="genvec2">      0.00000000       0.08333333       0.00000000 </v>
   <v name="genvec3">      0.00000000       0.00000000       0.08333333 </v>
   <v name="shift">      0.00000000       0.00000000       0.00000000 </v>
  </generation>
  <varray name="kpointlist" >
   <v>       0.00000000       0.00000000       0.00000000 </v>
   <v>       0.08333333       0.00000000       0.00000000 </v>
   <v>       0.16666667       0.00000000       0.00000000 </v>
   <v>       0.25000000       0.00000000       0.00000000 </v>
   <v>       0.33333333       0.00000000       0.00000000 </v>
   <v>       0.41666667       0.00000000       0.00000000 </v>
   <v>       0.50000000       0.00000000       0.00000000 </v>
   <v>       0.08333333       0.08333333       0.00000000 </v>
   <v>       0.16666667       0.08333333       0.00000000 </v>
   <v>       0.25000000       0.08333333       0.00000000 </v>
   <v>       0.33333333       0.08333333       0.00000000 </v>
   <v>       0.41666667       0.08333333       0.00000000 </v>
   <v>       0.50000000       0.08333333       0.00000000 </v>
   <v>      -0.41666667       0.08333333       0.00000000 </v>
   <v>      -0.33333333       0.08333333       0.00000000 </v>
   <v>      -0.25000000       0.08333333       0.00000000 </v>
   <v>      -0.16666667       0.08333333       0.00000000 </v>
   <v>      -0.08333333       0.08333333       0.00000000 </v>
   <v>       0.16666667       0.16666667       0.00000000 </v>
   <v>       0.25000000       0.16666667       0.00000000 </v>
   <v>       0.33333333       0.16666667       0.00000000 </v>
   <v>       0.41666667       0.16666667       0.00000000 </v>
   <v>       0.50000000       0.16666667       0.00000000 </v>
   <v>      -0.41666667       0.16666667       0.00000000 </v>
   <v>      -0.33333333       0.16666667       0.00000000 </v>
   <v>      -0.25000000       0.16666667       0.00000000 </v>
   <v>      -0.16666667       0.16666667       0.00000000 </v>
   <v>       0.25000000       0.25000000       0.00000000 </v>
   <v>       0.33333333       0.25000000       0.00000000 </v>
   <v>       0.41666667       0.25000000       0.00000000 </v>
   <v>       0.50000000       0.25000000       0.00000000 </v>
   <v>      -0.41666667       0.25000000       0.00000000 </v>
   <v>      -0.33333333       0.25000000       0.00000000 </v>
   <v>      -0.25000000       0.25000000       0.00000000 </v>
   <v>       0.33333333       0.33333333       0.00000000 </v>
   <v>       0.41666667       0.33333333       0.00000000 </v>
   <v>       0.50000000       0.33333333       0.00000000 </v>
   <v>      -0.41666667       0.33333333       0.00000000 </v>
   <v>      -0.33333333       0.33333333       0.00000000 </v>
   <v>       0.41666667       0.41666667       0.00000000 </v>
   <v>       0.50000000       0.41666667       0.00000000 </v>
   <v>      -0.41666667       0.41666667       0.00000000 </v>
   <v>       0.50000000       0.50000000       0.00000000 </v>
   <v>       0.25000000       0.16666667       0.08333333 </v>
   <v>       0.33333333       0.16666667       0.08333333 </v>
   <v>       0.41666667       0.16666667       0.08333333 </v>
   <v>       0.50000000       0.16666667       0.08333333 </v>
   <v>      -0.41666667       0.16666667       0.08333333 </v>
   <v>       0.33333333       0.25000000       0.08333333 </v>
   <v>       0.41666667       0.25000000       0.08333333 </v>
   <v>       0.50000000       0.25000000       0.08333333 </v>
   <v>      -0.41666667       0.25000000       0.08333333 </v>
   <v>      -0.33333333       0.25000000       0.08333333 </v>
   <v>      -0.25000000       0.25000000       0.08333333 </v>
   <v>      -0.16666667       0.25000000       0.08333333 </v>
   <v>       0.41666667       0.33333333       0.08333333 </v>
   <v>       0.50000000       0.33333333       0.08333333 </v>
   <v>      -0.41666667       0.33333333       0.08333333 </v>
   <v>      -0.33333333       0.33333333       0.08333333 </v>
   <v>      -0.25000000       0.33333333       0.08333333 </v>
   <v>       0.50000000       0.41666667       0.08333333 </v>
   <v>      -0.41666667       0.41666667       0.08333333 </v>
   <v>      -0.33333333       0.41666667       0.08333333 </v>
   <v>      -0.41666667       0.50000000       0.08333333 </v>
   <v>       0.50000000       0.33333333       0.16666667 </v>
   <v>      -0.41666667       0.33333333       0.16666667 </v>
   <v>      -0.33333333       0.33333333       0.16666667 </v>
   <v>      -0.41666667       0.41666667       0.16666667 </v>
   <v>      -0.33333333       0.41666667       0.16666667 </v>
   <v>      -0.25000000       0.41666667       0.16666667 </v>
   <v>      -0.33333333       0.50000000       0.16666667 </v>
   <v>      -0.25000000       0.50000000       0.25000000 </v>
  </varray>
  <varray name="weights" >
   <v>       0.00057870 </v>
   <v>       0.00462963 </v>
   <v>       0.00462963 </v>
   <v>       0.00462963 </v>
   <v>       0.00462963 </v>
   <v>       0.00462963 </v>
   <v>       0.00231481 </v>
   <v>       0.00347222 </v>
   <v>       0.01388889 </v>
   <v>       0.01388889 </v>
   <v>       0.01388889 </v>
   <v>       0.01388889 </v>
   <v>       0.01388889 </v>
   <v>       0.01388889 </v>
   <v>       0.01388889 </v>
   <v>       0.01388889 </v>
   <v>       0.01388889 </v>
   <v>       0.00694444 </v>
   <v>       0.00347222 </v>
   <v>       0.01388889 </v>
   <v>       0.01388889 </v>
   <v>       0.01388889 </v>
   <v>       0.01388889 </v>
   <v>       0.01388889 </v>
   <v>       0.01388889 </v>
   <v>       0.01388889 </v>
   <v>       0.00694444 </v>
   <v>       0.00347222 </v>
   <v>       0.01388889 </v>
   <v>       0.01388889 </v>
   <v>       0.01388889 </v>
   <v>       0.01388889 </v>
   <v>       0.01388889 </v>
   <v>       0.00694444 </v>
   <v>       0.00347222 </v>
   <v>       0.01388889 </v>
   <v>       0.01388889 </v>
   <v>       0.01388889 </v>
   <v>       0.00694444 </v>
   <v>       0.00347222 </v>
   <v>       0.01388889 </v>
   <v>       0.00694444 </v>
   <v>       0.00173611 </v>
   <v>       0.01388889 </v>
   <v>       0.02777778 </v>
   <v>       0.02777778 </v>
   <v>       0.02777778 </v>
   <v>       0.01388889 </v>
   <v>       0.01388889 </v>
   <v>       0.02777778 </v>
   <v>       0.02777778 </v>
   <v>       0.02777778 </v>
   <v>       0.02777778 </v>
   <v>       0.02777778 </v>
   <v>       0.01388889 </v>
   <v>       0.01388889 </v>
   <v>       0.02777778 </v>
   <v>       0.02777778 </v>
   <v>       0.02777778 </v>
   <v>       0.01388889 </v>
   <v>       0.01388889 </v>
   <v>       0.02777778 </v>
   <v>       0.01388889 </v>
   <v>       0.00694444 </v>
   <v>       0.01388889 </v>
   <v>       0.02777778 </v>
   <v>       0.01388889 </v>
   <v>       0.01388889 </v>
   <v>       0.02777778 </v>
   <v>       0.01388889 </v>
   <v>       0.00694444 </v>
   <v>       0.00347222 </v>
  </varray>
  <varray name="tetrahedronlist"  type="int" >
   <v type="int" >       24        1        2        2        8 </v>
   <v type="int" >       48        2        8        9       18 </v>
   <v type="int" >       48        2        3        9       18 </v>
   <v type="int" >       24        2        2        8       18 </v>
   <v type="int" >       48        3        9       10       17 </v>
   <v type="int" >       48        3        4       10       17 </v>
   <v type="int" >       48        3        9       17       18 </v>
   <v type="int" >       48        4       10       11       16 </v>
   <v type="int" >       48        4        5       11       16 </v>
   <v type="int" >       48        4       10       16       17 </v>
   <v type="int" >       48        5       11       12       15 </v>
   <v type="int" >       48        5        6       12       15 </v>
   <v type="int" >       48        5       11       15       16 </v>
   <v type="int" >       48        6       12       13       14 </v>
   <v type="int" >       48        6        7       13       14 </v>
   <v type="int" >       48        6       12       14       15 </v>
   <v type="int" >       48        7       13       13       14 </v>
   <v type="int" >       24        8        9        9       19 </v>
   <v type="int" >       24        8        9        9       18 </v>
   <v type="int" >       48        9       19       20       44 </v>
   <v type="int" >       48        9       10       20       44 </v>
   <v type="int" >       48        9       10       17       44 </v>
   <v type="int" >       24        9        9       19       44 </v>
   <v type="int" >       24        9        9       18       44 </v>
   <v type="int" >       48        9       17       18       44 </v>
   <v type="int" >       48       10       20       21       45 </v>
   <v type="int" >       48       10       11       21       45 </v>
   <v type="int" >       48       10       11       16       45 </v>
   <v type="int" >       48       10       20       44       45 </v>
   <v type="int" >       48       10       17       44       45 </v>
   <v type="int" >       48       10       16       17       45 </v>
   <v type="int" >       48       11       21       22       46 </v>
   <v type="int" >       48       11       12       22       46 </v>
   <v type="int" >       48       11       12       15       46 </v>
   <v type="int" >       48       11       21       45       46 </v>
   <v type="int" >       48       11       16       45       46 </v>
   <v type="int" >       48       11       15       16       46 </v>
   <v type="int" >       48       12       22       23       47 </v>
   <v type="int" >       48       12       13       23       47 </v>
   <v type="int" >       48       12       13       14       47 </v>
   <v type="int" >       48       12       22       46       47 </v>
   <v type="int" >       48       12       15       46       47 </v>
   <v type="int" >       48       12       14       15       47 </v>
   <v type="int" >       48       13       23       24       48 </v>
   <v type="int" >       48       13       14       24       48 </v>
   <v type="int" >       48       13       13       14       48 </v>
   <v type="int" >       48       13       23       47       48 </v>
   <v type="int" >       48       13       14       47       48 </v>
   <v type="int" >       48       14       24       25       47 </v>
   <v type="int" >       48       14       15       25       47 </v>
   <v type="int" >       48       14       24       47       48 </v>
   <v type="int" >       48       15       25       26       46 </v>
   <v type="int" >       48       15       16       26       46 </v>
   <v type="int" >       48       15       25       46       47 </v>
   <v type="int" >       48       16       26       27       45 </v>
   <v type="int" >       48       16       17       27       45 </v>
   <v type="int" >       48       16       26       45       46 </v>
   <v type="int" >       24       17       17       27       44 </v>
   <v type="int" >       24       17       17       18       44 </v>
   <v type="int" >       48       17       27       44       45 </v>
   <v type="int" >       24       19       20       20       28 </v>
   <v type="int" >       24       19       20       20       44 </v>
   <v type="int" >       48       20       28       29       49 </v>
   <v type="int" >       48       20       21       29       49 </v>
   <v type="int" >       48       20       21       45       49 </v>
   <v type="int" >       24       20       20       28       49 </v>
   <v type="int" >       24       20       20       44       49 </v>
   <v type="int" >       48       20       44       45       49 </v>
   <v type="int" >       48       21       29       30       50 </v>
   <v type="int" >       48       21       22       30       50 </v>
   <v type="int" >       48       21       22       46       50 </v>
   <v type="int" >       48       21       29       49       50 </v>
   <v type="int" >       48       21       45       49       50 </v>
   <v type="int" >       48       21       45       46       50 </v>
   <v type="int" >       48       22       30       31       51 </v>
   <v type="int" >       48       22       23       31       51 </v>
   <v type="int" >       48       22       23       47       51 </v>
   <v type="int" >       48       22       30       50       51 </v>
   <v type="int" >       48       22       46       50       51 </v>
   <v type="int" >       48       22       46       47       51 </v>
   <v type="int" >       48       23       31       32       52 </v>
   <v type="int" >       48       23       24       32       52 </v>
   <v type="int" >       48       23       24       48       52 </v>
   <v type="int" >       48       23       31       51       52 </v>
   <v type="int" >       48       23       47       51       52 </v>
   <v type="int" >       48       23       47       48       52 </v>
   <v type="int" >       48       24       32       33       53 </v>
   <v type="int" >       48       24       25       33       53 </v>
   <v type="int" >       48       24       25       47       53 </v>
   <v type="int" >       48       24       32       52       53 </v>
   <v type="int" >       48       24       48       52       53 </v>
   <v type="int" >       48       24       47       48       53 </v>
   <v type="int" >       48       25       33       34       54 </v>
   <v type="int" >       48       25       26       34       54 </v>
   <v type="int" >       48       25       26       46       54 </v>
   <v type="int" >       48       25       33       53       54 </v>
   <v type="int" >       48       25       47       53       54 </v>
   <v type="int" >       48       25       46       47       54 </v>
   <v type="int" >       24       26       26       34       55 </v>
   <v type="int" >       24       26       26       27       55 </v>
   <v type="int" >       48       26       27       45       55 </v>
   <v type="int" >       48       26       34       54       55 </v>
   <v type="int" >       48       26       46       54       55 </v>
   <v type="int" >       48       26       45       46       55 </v>
   <v type="int" >       24       27       45       45       55 </v>
   <v type="int" >       24       27       44       45       45 </v>
   <v type="int" >       24       28       29       29       35 </v>
   <v type="int" >       24       28       29       29       49 </v>
   <v type="int" >       48       29       35       36       56 </v>
   <v type="int" >       48       29       30       36       56 </v>
   <v type="int" >       48       29       30       50       56 </v>
   <v type="int" >       24       29       29       35       56 </v>
   <v type="int" >       24       29       29       49       56 </v>
   <v type="int" >       48       29       49       50       56 </v>
   <v type="int" >       48       30       36       37       57 </v>
   <v type="int" >       48       30       31       37       57 </v>
   <v type="int" >       48       30       31       51       57 </v>
   <v type="int" >       48       30       36       56       57 </v>
   <v type="int" >       48       30       50       56       57 </v>
   <v type="int" >       48       30       50       51       57 </v>
   <v type="int" >       48       31       37       38       58 </v>
   <v type="int" >       48       31       32       38       58 </v>
   <v type="int" >       48       31       32       52       58 </v>
   <v type="int" >       48       31       37       57       58 </v>
   <v type="int" >       48       31       51       57       58 </v>
   <v type="int" >       48       31       51       52       58 </v>
   <v type="int" >       48       32       38       39       59 </v>
   <v type="int" >       48       32       33       39       59 </v>
   <v type="int" >       48       32       33       53       59 </v>
   <v type="int" >       48       32       38       58       59 </v>
   <v type="int" >       48       32       52       58       59 </v>
   <v type="int" >       48       32       52       53       59 </v>
   <v type="int" >       24       33       33       39       60 </v>
   <v type="int" >       24       33       33       34       60 </v>
   <v type="int" >       48       33       34       54       60 </v>
   <v type="int" >       48       33       39       59       60 </v>
   <v type="int" >       48       33       53       59       60 </v>
   <v type="int" >       48       33       53       54       60 </v>
   <v type="int" >       24       34       54       54       60 </v>
   <v type="int" >       24       34       54       54       55 </v>
   <v type="int" >       24       35       36       36       40 </v>
   <v type="int" >       24       35       36       36       56 </v>
   <v type="int" >       48       36       40       41       61 </v>
   <v type="int" >       48       36       37       41       61 </v>
   <v type="int" >       48       36       37       57       61 </v>
   <v type="int" >       24       36       36       40       61 </v>
   <v type="int" >       24       36       36       56       61 </v>
   <v type="int" >       48       36       56       57       61 </v>
   <v type="int" >       48       37       41       42       62 </v>
   <v type="int" >       48       37       38       42       62 </v>
   <v type="int" >       48       37       38       58       62 </v>
   <v type="int" >       48       37       41       61       62 </v>
   <v type="int" >       48       37       57       61       62 </v>
   <v type="int" >       48       37       57       58       62 </v>
   <v type="int" >       24       38       38       42       63 </v>
   <v type="int" >       24       38       38       39       63 </v>
   <v type="int" >       48       38       39       59       63 </v>
   <v type="int" >       48       38       42       62       63 </v>
   <v type="int" >       48       38       58       62       63 </v>
   <v type="int" >       48       38       58       59       63 </v>
   <v type="int" >       24       39       59       59       63 </v>
   <v type="int" >       24       39       59       59       60 </v>
   <v type="int" >       24       40       41       41       43 </v>
   <v type="int" >       24       40       41       41       61 </v>
   <v type="int" >       48       41       41       43       64 </v>
   <v type="int" >       24       41       41       42       64 </v>
   <v type="int" >       48       41       42       62       64 </v>
   <v type="int" >       24       41       41       61       64 </v>
   <v type="int" >       48       41       61       62       64 </v>
   <v type="int" >       24       42       62       62       64 </v>
   <v type="int" >       24       42       62       62       63 </v>
   <v type="int" >       24       44       45       45       49 </v>
   <v type="int" >       48       45       49       50       55 </v>
   <v type="int" >       48       45       46       50       55 </v>
   <v type="int" >       24       45       45       49       55 </v>
   <v type="int" >       48       46       50       51       54 </v>
   <v type="int" >       48       46       47       51       54 </v>
   <v type="int" >       48       46       50       54       55 </v>
   <v type="int" >       48       47       51       52       53 </v>
   <v type="int" >       48       47       48       52       53 </v>
   <v type="int" >       48       47       51       53       54 </v>
   <v type="int" >       48       48       52       52       53 </v>
   <v type="int" >       24       49       50       50       56 </v>
   <v type="int" >       24       49       50       50       55 </v>
   <v type="int" >       48       50       56       57       65 </v>
   <v type="int" >       48       50       51       57       65 </v>
   <v type="int" >       48       50       51       54       65 </v>
   <v type="int" >       24       50       50       56       65 </v>
   <v type="int" >       24       50       50       55       65 </v>
   <v type="int" >       48       50       54       55       65 </v>
   <v type="int" >       48       51       57       58       66 </v>
   <v type="int" >       48       51       52       58       66 </v>
   <v type="int" >       48       51       52       53       66 </v>
   <v type="int" >       48       51       57       65       66 </v>
   <v type="int" >       48       51       54       65       66 </v>
   <v type="int" >       48       51       53       54       66 </v>
   <v type="int" >       48       52       58       59       67 </v>
   <v type="int" >       48       52       53       59       67 </v>
   <v type="int" >       48       52       52       53       67 </v>
   <v type="int" >       48       52       58       66       67 </v>
   <v type="int" >       48       52       53       66       67 </v>
   <v type="int" >       48       53       59       60       66 </v>
   <v type="int" >       48       53       54       60       66 </v>
   <v type="int" >       48       53       59       66       67 </v>
   <v type="int" >       24       54       54       60       65 </v>
   <v type="int" >       24       54       54       55       65 </v>
   <v type="int" >       48       54       60       65       66 </v>
   <v type="int" >       24       56       57       57       61 </v>
   <v type="int" >       24       56       57       57       65 </v>
   <v type="int" >       48       57       61       62       68 </v>
   <v type="int" >       48       57       58       62       68 </v>
   <v type="int" >       48       57       58       66       68 </v>
   <v type="int" >       24       57       57       61       68 </v>
   <v type="int" >       24       57       57       65       68 </v>
   <v type="int" >       48       57       65       66       68 </v>
   <v type="int" >       48       58       62       63       69 </v>
   <v type="int" >       48       58       59       63       69 </v>
   <v type="int" >       48       58       59       67       69 </v>
   <v type="int" >       48       58       62       68       69 </v>
   <v type="int" >       48       58       66       68       69 </v>
   <v type="int" >       48       58       66       67       69 </v>
   <v type="int" >       24       59       59       63       70 </v>
   <v type="int" >       24       59       59       60       70 </v>
   <v type="int" >       48       59       60       66       70 </v>
   <v type="int" >       48       59       63       69       70 </v>
   <v type="int" >       48       59       67       69       70 </v>
   <v type="int" >       48       59       66       67       70 </v>
   <v type="int" >       24       60       66       66       70 </v>
   <v type="int" >       24       60       65       66       66 </v>
   <v type="int" >       24       61       62       62       64 </v>
   <v type="int" >       24       61       62       62       68 </v>
   <v type="int" >       48       62       62       64       71 </v>
   <v type="int" >       24       62       62       63       71 </v>
   <v type="int" >       48       62       63       69       71 </v>
   <v type="int" >       24       62       62       68       71 </v>
   <v type="int" >       48       62       68       69       71 </v>
   <v type="int" >       24       63       69       69       71 </v>
   <v type="int" >       24       63       69       69       70 </v>
   <v type="int" >       24       65       66       66       68 </v>
   <v type="int" >       48       66       68       69       70 </v>
   <v type="int" >       48       66       67       69       70 </v>
   <v type="int" >       24       66       66       68       70 </v>
   <v type="int" >       48       67       69       69       70 </v>
   <v type="int" >       24       68       69       69       71 </v>
   <v type="int" >       24       68       69       69       70 </v>
   <v type="int" >       48       69       69       71       72 </v>
   <v type="int" >       96       69       69       70       72 </v>
  </varray>
  <i name="volumeweight">      0.00009645 </i>
 </kpoints>
 <parameters>
  <separator name="general" >
   <i type="string" name="SYSTEM">unknown system</i>
   <i type="logical" name="LCOMPAT"> F  </i>
  </separator>
  <separator name="electronic" >
   <i type="string" name="PREC">high</i>
   <i name="ENMAX">    500.00000000</i>
   <i name="ENAUG">    644.87300000</i>
   <i name="EDIFF">      0.00001000</i>
   <i type="int" name="IALGO">    38</i>
   <i type="int" name="IWAVPR">    10</i>
   <i type="int" name="NBANDS">    12</i>
   <i name="NELECT">      8.00000000</i>
   <i type="int" name="TURBO">     0</i>
   <i type="int" name="IRESTART">     0</i>
   <i type="int" name="NREBOOT">     0</i>
   <i type="int" name="NMIN">     0</i>
   <i name="EREF">      0.00000000</i>
   <separator name="electronic smearing" >
    <i type="int" name="ISMEAR">    -5</i>
    <i name="SIGMA">      0.20000000</i>
    <i name="KSPACING">      0.50000000</i>
    <i type="logical" name="KGAMMA"> T  </i>
   </separator>
   <separator name="electronic projectors" >
    <i type="logical" name="LREAL"> F  </i>
    <v name="ROPT">      0.00000000</v>
    <i type="int" name="LMAXPAW">  -100</i>
    <i type="int" name="LMAXMIX">     2</i>
    <i type="logical" name="NLSPLINE"> F  </i>
   </separator>
   <separator name="electronic startup" >
    <i type="int" name="ISTART">     0</i>
    <i type="int" name="ICHARG">     2</i>
    <i type="int" name="INIWAV">     1</i>
   </separator>
   <separator name="electronic spin" >
    <i type="int" name="ISPIN">     1</i>
    <i type="logical" name="LNONCOLLINEAR"> F  </i>
    <v name="MAGMOM">      1.00000000      1.00000000</v>
    <i name="NUPDOWN">     -1.00000000</i>
    <i type="logical" name="LSORBIT"> F  </i>
    <v name="SAXIS">      0.00000000      0.00000000      1.00000000</v>
    <i type="logical" name="LSPIRAL"> F  </i>
    <v name="QSPIRAL">      0.00000000      0.00000000      0.00000000</v>
    <i type="logical" name="LZEROZ"> F  </i>
   </separator>
   <separator name="electronic exchange-correlation" >
    <i type="logical" name="LASPH"> F  </i>
    <i type="logical" name="LMETAGGA"> F  </i>
   </separator>
   <separator name="electronic convergence" >
    <i type="int" name="NELM">    50</i>
    <i type="int" name="NELMDL">    -5</i>
    <i type="int" name="NELMIN">     5</i>
    <i name="ENINI">    500.00000000</i>
    <separator name="electronic convergence detail" >
     <i type="logical" name="LDIAG"> T  </i>
     <i type="logical" name="LSUBROT"> T  </i>
     <i name="WEIMIN">      0.00000000</i>
     <i name="EBREAK">      0.00000021</i>
     <i name="DEPER">      0.30000000</i>
     <i type="int" name="NRMM">     4</i>
     <i name="TIME">      0.40000000</i>
    </separator>
   </separator>
   <separator name="electronic mixer" >
    <i name="AMIX">      0.40000000</i>
    <i name="BMIX">      1.00000000</i>
    <i name="AMIN">      0.10000000</i>
    <i name="AMIX_MAG">      1.60000000</i>
    <i name="BMIX_MAG">      1.00000000</i>
    <separator name="electronic mixer details" >
     <i type="int" name="IMIX">     4</i>
     <i type="int" name="MAXMIX">   -45</i>
     <i name="WC">    100.00000000</i>
     <i type="int" name="INIMIX">     1</i>
     <i type="int" name="MIXPRE">     1</i>
     <i type="int" name="MREMOVE">     5</i>
    </separator>
   </separator>
   <separator name="electronic dipolcorrection" >
    <i type="logical" name="LDIPOL"> F  </i>
    <i type="logical" name="LMONO"> F  </i>
    <i type="int" name="IDIPOL">     0</i>
    <i name="EPSILON">      1.00000000</i>
    <v name="DIPOL">   -100.00000000   -100.00000000   -100.00000000</v>
    <i name="EFIELD">      0.00000000</i>
   </separator>
  </separator>
  <separator name="grids" >
   <i type="int" name="NGX">    18</i>
   <i type="int" name="NGY">    18</i>
   <i type="int" name="NGZ">    18</i>
   <i type="int" name="NGXF">    28</i>
   <i type="int" name="NGYF">    28</i>
   <i type="int" name="NGZF">    28</i>
   <i type="logical" name="ADDGRID"> F  </i>
  </separator>
  <separator name="ionic" >
   <i type="int" name="NSW">     0</i>
   <i type="int" name="IBRION">    -1</i>
   <i type="int" name="ISIF">     2</i>
   <i name="PSTRESS">      0.00000000</i>
   <i name="EDIFFG">      0.00010000</i>
   <i type="int" name="NFREE">     0</i>
   <i name="POTIM">      0.50000000</i>
   <i name="SMASS">     -3.00000000</i>
   <i name="SCALEE">      1.00000000</i>
  </separator>
  <separator name="ionic md" >
   <i name="TEBEG">      0.00010000</i>
   <i name="TEEND">      0.00010000</i>
   <i type="int" name="NBLOCK">     1</i>
   <i type="int" name="KBLOCK">     1</i>
   <i type="int" name="NPACO">   256</i>
   <i name="APACO">     16.00000000</i>
  </separator>
  <separator name="symmetry" >
   <i type="int" name="ISYM">     2</i>
   <i name="SYMPREC">      0.00001000</i>
  </separator>
  <separator name="dos" >
   <i type="logical" name="LORBIT"> F  </i>
   <v name="RWIGS">     -1.00000000</v>
   <i type="int" name="NEDOS">   301</i>
   <i name="EMIN">     10.00000000</i>
   <i name="EMAX">    -10.00000000</i>
   <i name="EFERMI">      0.00000000</i>
  </separator>
  <separator name="writing" >
   <i type="int" name="NWRITE">     2</i>
   <i type="logical" name="LWAVE"> F  </i>
   <i type="logical" name="LCHARG"> T  </i>
   <i type="logical" name="LPARD"> F  </i>
   <i type="logical" name="LVTOT"> F  </i>
   <i type="logical" name="LVHAR"> F  </i>
   <i type="logical" name="LELF"> F  </i>
   <i type="logical" name="LOPTICS"> F  </i>
   <v name="STM">      0.00000000      0.00000000      0.00000000      0.00000000      0.00000000      0.00000000      0.00000000</v>
  </separator>
  <separator name="performance" >
   <i type="int" name="NPAR">     4</i>
   <i type="int" name="NSIM">     4</i>
   <i type="int" name="NBLK">    -1</i>
   <i type="logical" name="LPLANE"> T  </i>
   <i type="logical" name="LSCALAPACK"> F  </i>
   <i type="logical" name="LSCAAWARE"> F  </i>
   <i type="logical" name="LSCALU"> F  </i>
   <i type="logical" name="LASYNC"> F  </i>
   <i type="logical" name="LORBITALREAL"> F  </i>
  </separator>
  <separator name="miscellaneous" >
   <i type="int" name="IDIOT">     3</i>
   <i type="logical" name="LMUSIC"> F  </i>
   <v name="POMASS">     12.01100000</v>
   <v name="DARWINR">      0.00000000</v>
   <v name="DARWINV">      1.00000000</v>
   <i type="logical" name="LCORR"> T  </i>
  </separator>
  <i type="logical" name="GGA_COMPAT"> T  </i>
  <i type="logical" name="LBERRY"> F  </i>
  <i type="int" name="ICORELEVEL">     0</i>
  <i type="logical" name="LDAU"> F  </i>
  <i type="int" name="I_CONSTRAINED_M">     0</i>
  <separator name="electronic exchange-correlation" >
   <i type="string" name="GGA">--</i>
   <i type="int" name="VOSKOWN">     0</i>
   <i type="logical" name="LHFCALC"> F  </i>
   <i type="string" name="PRECFOCK"></i>
   <i type="logical" name="LSYMGRAD"> F  </i>
   <i type="logical" name="LHFONE"> F  </i>
   <i type="logical" name="LRHFCALC"> F  </i>
   <i type="logical" name="LTHOMAS"> F  </i>
   <i type="logical" name="LMODELHF"> F  </i>
   <i name="ENCUT4O">     -1.00000000</i>
   <i type="int" name="EXXOEP">     0</i>
   <i type="int" name="FOURORBIT">     0</i>
   <i name="AEXX">      0.00000000</i>
   <i name="HFALPHA">      0.00000000</i>
   <i name="MCALPHA">      0.00000000</i>
   <i name="ALDAX">      1.00000000</i>
   <i name="AGGAX">      1.00000000</i>
   <i name="ALDAC">      1.00000000</i>
   <i name="AGGAC">      1.00000000</i>
   <i type="int" name="NKREDX">     1</i>
   <i type="int" name="NKREDY">     1</i>
   <i type="int" name="NKREDZ">     1</i>
   <i type="logical" name="SHIFTRED"> F  </i>
   <i type="logical" name="ODDONLY"> F  </i>
   <i type="logical" name="EVENONLY"> F  </i>
   <i type="int" name="LMAXFOCK">     0</i>
   <i type="int" name="NMAXFOCKAE">     0</i>
   <i type="logical" name="LFOCKAEDFT"> F  </i>
   <i name="HFSCREEN">      0.00000000</i>
   <i name="HFSCREENC">      0.00000000</i>
   <i type="int" name="NBANDSGWLOW">     0</i>
  </separator>
  <separator name="vdW DFT" >
   <i type="logical" name="LUSE_VDW"> F  </i>
   <i name="Zab_VDW">     -0.84910000</i>
   <i name="PARAM1">      0.12340000</i>
   <i name="PARAM2">      1.00000000</i>
   <i name="PARAM3">      0.00000000</i>
  </separator>
  <separator name="model GW" >
   <i type="int" name="MODEL_GW">     0</i>
   <i name="MODEL_EPS0">      2.52263124</i>
   <i name="MODEL_ALPHA">      1.00000000</i>
  </separator>
  <separator name="linear response parameters" >
   <i type="logical" name="LEPSILON"> F  </i>
   <i type="logical" name="LRPA"> F  </i>
   <i type="logical" name="LNABLA"> F  </i>
   <i type="logical" name="LVEL"> F  </i>
   <i type="int" name="KINTER">     0</i>
   <i name="CSHIFT">      0.10000000</i>
   <i name="OMEGAMAX">     -1.00000000</i>
   <i name="DEG_THRESHOLD">      0.00200000</i>
  </separator>
  <separator name="orbital magnetization" >
   <i type="logical" name="NUCIND"> F  </i>
   <v name="MAGPOS">      0.00000000      0.00000000      0.00000000</v>
   <i type="logical" name="LNICSALL"> T  </i>
   <i type="logical" name="ORBITALMAG"> F  </i>
   <i type="logical" name="LMAGBLOCH"> F  </i>
   <i type="logical" name="LCHIMAG"> F  </i>
   <i type="logical" name="LGAUGE"> T  </i>
   <i type="int" name="MAGATOM">     0</i>
   <v name="MAGDIPOL">      0.00000000      0.00000000      0.00000000</v>
   <v name="AVECCONST">      0.00000000      0.00000000      0.00000000</v>
  </separator>
  <separator name="response functions" >
   <i type="logical" name="LADDER"> F  </i>
   <i type="logical" name="LFXC"> F  </i>
   <i type="logical" name="LHARTREE"> T  </i>
   <i type="int" name="IBSE">     0</i>
   <i type="logical" name="LTCTE"> F  </i>
   <i type="logical" name="LTETE"> F  </i>
   <i type="logical" name="LTRIPLET"> F  </i>
   <i type="logical" name="LFXCEPS"> F  </i>
   <i type="logical" name="L2ORDER"> F  </i>
   <i type="logical" name="LUSEW"> F  </i>
   <i name="ENCUTGW">     -2.00000000</i>
   <i name="ENCUTGWSOFT">     -2.00000000</i>
   <i name="ENCUTLF">     -1.00000000</i>
   <i type="int" name="LMAXMP2">    -1</i>
   <i name="SCISSOR">      0.00000000</i>
   <i type="int" name="NOMEGA">     0</i>
   <i type="int" name="NOMEGAR">     0</i>
   <i type="int" name="NBANDSGW">    -1</i>
   <i type="int" name="NBANDSO">    -1</i>
   <i type="int" name="NBANDSV">    -1</i>
   <i type="int" name="NELM">    50</i>
   <i type="int" name="DIM">     3</i>
   <i type="int" name="ANTIRES">     0</i>
   <i name="OMEGAMAX">    -30.00000000</i>
   <i name="OMEGATL">   -200.00000000</i>
   <i type="int" name="OMEGAGRID">     0</i>
   <i name="CSHIFT">     -0.10000000</i>
   <i type="logical" name="SELFENERGY"> F  </i>
   <i type="logical" name="LSPECTRAL"> F  </i>
   <i type="logical" name="ODDONLYGW"> F  </i>
   <i type="logical" name="EVENONLYGW"> F  </i>
   <i type="int" name="NKREDLFX">     1</i>
   <i type="int" name="NKREDLFY">     1</i>
   <i type="int" name="NKREDLFZ">     1</i>
   <i type="int" name="MAXMEM">  1800</i>
   <i type="int" name="TELESCOPE">     0</i>
  </separator>
 </parameters>
 <atominfo>
  <atoms>       2 </atoms>
  <types>       1 </types>
  <array name="atoms" >
   <dimension dim="1">ion</dimension>
   <field type="string">element</field>
   <field type="int">atomtype</field>
   <set>
    <rc><c>C </c><c>   1</c></rc>
    <rc><c>C </c><c>   1</c></rc>
   </set>
  </array>
  <array name="atomtypes" >
   <dimension dim="1">type</dimension>
   <field type="int">atomspertype</field>
   <field type="string">element</field>
   <field>mass</field>
   <field>valence</field>
   <field type="string">pseudopotential</field>
   <set>
    <rc><c>   2</c><c>C </c><c>     12.01100000</c><c>      4.00000000</c><c>  PAW_PBE C 08Apr2002                   </c></rc>
   </set>
  </array>
 </atominfo>
 <structure name="initialpos" >
  <crystal>
   <varray name="basis" >
    <v>      -1.61399000       0.00000000       1.61399000 </v>
    <v>       0.00000000       1.61399000       1.61399000 </v>
    <v>      -1.61399000       1.61399000       0.00000000 </v>
   </varray>
   <i name="volume">      8.40877079 </i>
   <varray name="rec_basis" >
    <v>      -0.30979126      -0.30979126       0.30979126 </v>
    <v>       0.30979126       0.30979126       0.30979126 </v>
    <v>      -0.30979126       0.30979126      -0.30979126 </v>
   </varray>
  </crystal>
  <varray name="positions" >
   <v>       0.87500000       0.87500000       0.87500000 </v>
   <v>       0.12500000       0.12500000       0.12500000 </v>
  </varray>
 </structure>
 <calculation>
  <scstep>
   <time name="dav">    0.45    0.45</time>
   <time name="total">    0.47    0.47</time>
   <energy>
    <i name="alphaZ">     39.07668222 </i>
    <i name="ewald">   -384.48191759 </i>
    <i name="hartreedc">    -11.71056808 </i>
    <i name="XCdc">     29.48250372 </i>
    <i name="pawpsdc">    217.04409276 </i>
    <i name="pawaedc">   -218.18290438 </i>
    <i name="eentropy">      0.00000000 </i>
    <i name="bandstr">     34.32855182 </i>
    <i name="atom">    294.29684335 </i>
    <i name="e_fr_energy">     -0.14671619 </i>
    <i name="e_wo_entrp">     -0.14671619 </i>
    <i name="e_0_energy">     -0.14671619 </i>
   </energy>
  </scstep>
  <scstep>
   <time name="dav">    0.51    0.51</time>
   <time name="total">    0.51    0.52</time>
   <energy>
    <i name="e_fr_energy">    -17.62782971 </i>
    <i name="e_wo_entrp">    -17.62782971 </i>
    <i name="e_0_energy">    -17.62782971 </i>
   </energy>
  </scstep>
  <scstep>
   <time name="dav">    0.47    0.47</time>
   <time name="total">    0.47    0.48</time>
   <energy>
    <i name="e_fr_energy">    -17.85653332 </i>
    <i name="e_wo_entrp">    -17.85653332 </i>
    <i name="e_0_energy">    -17.85653332 </i>
   </energy>
  </scstep>
  <scstep>
   <time name="dav">    0.45    0.45</time>
   <time name="total">    0.46    0.46</time>
   <energy>
    <i name="e_fr_energy">    -17.85669380 </i>
    <i name="e_wo_entrp">    -17.85669380 </i>
    <i name="e_0_energy">    -17.85669380 </i>
   </energy>
  </scstep>
  <scstep>
   <time name="dav">    0.47    0.47</time>
   <time name="total">    0.49    0.50</time>
   <energy>
    <i name="e_fr_energy">    -17.85669389 </i>
    <i name="e_wo_entrp">    -17.85669389 </i>
    <i name="e_0_energy">    -17.85669389 </i>
   </energy>
  </scstep>
  <scstep>
   <time name="dav">    0.43    0.43</time>
   <time name="total">    0.46    0.47</time>
   <energy>
    <i name="e_fr_energy">    -16.82484845 </i>
    <i name="e_wo_entrp">    -16.82484845 </i>
    <i name="e_0_energy">    -16.82484845 </i>
   </energy>
  </scstep>
  <scstep>
   <time name="dav">    0.45    0.45</time>
   <time name="total">    0.48    0.48</time>
   <energy>
    <i name="e_fr_energy">    -16.48123756 </i>
    <i name="e_wo_entrp">    -16.48123756 </i>
    <i name="e_0_energy">    -16.48123756 </i>
   </energy>
  </scstep>
  <scstep>
   <time name="dav">    0.44    0.44</time>
   <time name="total">    0.47    0.48</time>
   <energy>
    <i name="e_fr_energy">    -16.48401337 </i>
    <i name="e_wo_entrp">    -16.48401337 </i>
    <i name="e_0_energy">    -16.48401337 </i>
   </energy>
  </scstep>
  <scstep>
   <time name="dav">    0.46    0.46</time>
   <time name="total">    0.47    0.48</time>
   <energy>
    <i name="alphaZ">     39.07668222 </i>
    <i name="ewald">   -384.48191759 </i>
    <i name="hartreedc">    -22.47576323 </i>
    <i name="XCdc">     30.47092575 </i>
    <i name="pawpsdc">   1269.45500744 </i>
    <i name="pawaedc">  -1270.98188710 </i>
    <i name="eentropy">      0.00000000 </i>
    <i name="bandstr">     28.15608889 </i>
    <i name="atom">    294.29684335 </i>
    <i name="e_fr_energy">    -16.48402029 </i>
    <i name="e_wo_entrp">    -16.48402029 </i>
    <i name="e_0_energy">    -16.48402029 </i>
   </energy>
  </scstep>
  <structure>
   <crystal>
    <varray name="basis" >
     <v>      -1.61399000       0.00000000       1.61399000 </v>
     <v>       0.00000000       1.61399000       1.61399000 </v>
     <v>      -1.61399000       1.61399000       0.00000000 </v>
    </varray>
    <i name="volume">      8.40877079 </i>
    <varray name="rec_basis" >
     <v>      -0.30979126      -0.30979126       0.30979126 </v>
     <v>       0.30979126       0.30979126       0.30979126 </v>
     <v>      -0.30979126       0.30979126      -0.30979126 </v>
    </varray>
   </crystal>
   <varray name="positions" >
    <v>       0.87500000       0.87500000       0.87500000 </v>
    <v>       0.12500000       0.12500000       0.12500000 </v>
   </varray>
  </structure>
  <varray name="forces" >
   <v>      -0.00000000       0.00000000       0.00000000 </v>
   <v>       0.00000000      -0.00000000      -0.00000000 </v>
  </varray>
  <varray name="stress" >
   <v>    2290.29275575       0.00000000      -0.00000000 </v>
   <v>       0.00000000    2290.29275575      -0.00000000 </v>
   <v>      -0.00000000      -0.00000000    2290.29275575 </v>
  </varray>
  <energy>
   <i name="e_fr_energy">    -16.48402029 </i>
   <i name="e_wo_entrp">    -16.48402029 </i>
   <i name="e_0_energy">      0.00000000 </i>
  </energy>
  <time name="totalsc">    4.49    4.51</time>
  <eigenvalues>
   <array>
    <dimension dim="1">band</dimension>
    <dimension dim="2">kpoint</dimension>
    <dimension dim="3">spin</dimension>
    <field>eigene</field>
    <field>occ</field>
    <set>
     <set comment="spin 1">
      <set comment="kpoint 1">
       <r>  -11.3710    1.0000 </r>
       <r>   14.5731    1.0000 </r>
       <r>   14.5731    1.0000 </r>
       <r>   14.5731    1.0000 </r>
       <r>   20.9977    0.0000 </r>
       <r>   20.9977    0.0000 </r>
       <r>   20.9977    0.0000 </r>
       <r>   35.3550    0.0000 </r>
       <r>   38.2289    0.0000 </r>
       <r>   44.7014    0.0000 </r>
       <r>   44.7014    0.0000 </r>
       <r>   45.7513    0.0000 </r>
      </set>
      <set comment="kpoint 2">
       <r>  -11.1380    1.0000 </r>
       <r>   12.9846    1.0000 </r>
       <r>   14.1236    1.0000 </r>
       <r>   14.1236    1.0000 </r>
       <r>   21.5832    0.0000 </r>
       <r>   21.5832    0.0000 </r>
       <r>   22.1294    0.0000 </r>
       <r>   35.1505    0.0000 </r>
       <r>   38.5716    0.0000 </r>
       <r>   41.9435    0.0000 </r>
       <r>   41.9435    0.0000 </r>
       <r>   45.5791    0.0000 </r>
      </set>
      <set comment="kpoint 3">
       <r>  -10.4394    1.0000 </r>
       <r>    9.8331    1.0000 </r>
       <r>   13.1826    1.0000 </r>
       <r>   13.1826    1.0000 </r>
       <r>   22.8030    0.0000 </r>
       <r>   22.8030    0.0000 </r>
       <r>   24.0116    0.0000 </r>
       <r>   34.6327    0.0000 </r>
       <r>   39.3292    0.0000 </r>
       <r>   39.9650    0.0000 </r>
       <r>   39.9650    0.0000 </r>
       <r>   45.5220    0.0000 </r>
      </set>
      <set comment="kpoint 4">
       <r>   -9.2809    1.0000 </r>
       <r>    6.3567    1.0000 </r>
       <r>   12.2427    1.0000 </r>
       <r>   12.2427    1.0000 </r>
       <r>   23.8309    0.0000 </r>
       <r>   23.8309    0.0000 </r>
       <r>   25.6350    0.0000 </r>
       <r>   33.9875    0.0000 </r>
       <r>   39.5991    0.0000 </r>
       <r>   39.5991    0.0000 </r>
       <r>   40.0591    0.0000 </r>
       <r>   45.8578    0.0000 </r>
      </set>
      <set comment="kpoint 5">
       <r>   -7.6732    1.0000 </r>
       <r>    2.9465    1.0000 </r>
       <r>   11.5114    1.0000 </r>
       <r>   11.5114    1.0000 </r>
       <r>   24.2697    0.0000 </r>
       <r>   24.2697    0.0000 </r>
       <r>   26.8466    0.0000 </r>
       <r>   33.3969    0.0000 </r>
       <r>   40.6755    0.0000 </r>
       <r>   40.9777    0.0000 </r>
       <r>   40.9777    0.0000 </r>
       <r>   46.0662    0.0000 </r>
      </set>
      <set comment="kpoint 6">
       <r>   -5.6432    1.0000 </r>
       <r>   -0.2135    1.0000 </r>
       <r>   11.0589    1.0000 </r>
       <r>   11.0589    1.0000 </r>
       <r>   24.2969    0.0000 </r>
       <r>   24.2969    0.0000 </r>
       <r>   27.6071    0.0000 </r>
       <r>   32.9941    0.0000 </r>
       <r>   41.2262    0.0000 </r>
       <r>   43.5104    0.0000 </r>
       <r>   43.5104    0.0000 </r>
       <r>   45.7983    0.0000 </r>
      </set>
      <set comment="kpoint 7">
       <r>   -3.6376    1.0000 </r>
       <r>   -2.6025    1.0000 </r>
       <r>   10.9066    1.0000 </r>
       <r>   10.9066    1.0000 </r>
       <r>   24.2595    0.0000 </r>
       <r>   24.2595    0.0000 </r>
       <r>   27.8687    0.0000 </r>
       <r>   32.8551    0.0000 </r>
       <r>   41.5024    0.0000 </r>
       <r>   45.2202    0.0000 </r>
       <r>   45.2202    0.0000 </r>
       <r>   45.5647    0.0000 </r>
      </set>
      <set comment="kpoint 8">
       <r>  -11.0602    1.0000 </r>
       <r>   13.2858    1.0000 </r>
       <r>   13.2858    1.0000 </r>
       <r>   13.9537    1.0000 </r>
       <r>   20.8058    0.0000 </r>
       <r>   22.5887    0.0000 </r>
       <r>   22.5887    0.0000 </r>
       <r>   34.6173    0.0000 </r>
       <r>   38.7086    0.0000 </r>
       <r>   40.2601    0.0000 </r>
       <r>   45.0989    0.0000 </r>
       <r>   46.4965    0.0000 </r>
      </set>
      <set comment="kpoint 9">
       <r>  -10.5169    1.0000 </r>
       <r>   10.8877    1.0000 </r>
       <r>   12.2091    1.0000 </r>
       <r>   13.4775    1.0000 </r>
       <r>   21.2366    0.0000 </r>
       <r>   24.0275    0.0000 </r>
       <r>   24.2423    0.0000 </r>
       <r>   33.2386    0.0000 </r>
       <r>   39.3046    0.0000 </r>
       <r>   39.5015    0.0000 </r>
       <r>   43.2027    0.0000 </r>
       <r>   46.5701    0.0000 </r>
      </set>
      <set comment="kpoint 10">
       <r>   -9.5119    1.0000 </r>
       <r>    7.5945    1.0000 </r>
       <r>   11.2757    1.0000 </r>
       <r>   12.6006    1.0000 </r>
       <r>   22.3245    0.0000 </r>
       <r>   25.2018    0.0000 </r>
       <r>   25.8426    0.0000 </r>
       <r>   32.2373    0.0000 </r>
       <r>   39.1497    0.0000 </r>
       <r>   40.2337    0.0000 </r>
       <r>   42.2508    0.0000 </r>
       <r>   46.4529    0.0000 </r>
      </set>
      <set comment="kpoint 11">
       <r>   -8.0546    1.0000 </r>
       <r>    4.2015    1.0000 </r>
       <r>   10.6394    1.0000 </r>
       <r>   11.6223    1.0000 </r>
       <r>   23.1701    0.0000 </r>
       <r>   25.6758    0.0000 </r>
       <r>   27.0833    0.0000 </r>
       <r>   32.2113    0.0000 </r>
       <r>   39.2409    0.0000 </r>
       <r>   41.1919    0.0000 </r>
       <r>   42.9927    0.0000 </r>
       <r>   46.4680    0.0000 </r>
      </set>
      <set comment="kpoint 12">
       <r>   -6.1642    1.0000 </r>
       <r>    0.9757    1.0000 </r>
       <r>   10.3523    1.0000 </r>
       <r>   10.7786    1.0000 </r>
       <r>   23.5353    0.0000 </r>
       <r>   25.5337    0.0000 </r>
       <r>   27.9763    0.0000 </r>
       <r>   32.7518    0.0000 </r>
       <r>   39.7073    0.0000 </r>
       <r>   42.7028    0.0000 </r>
       <r>   44.8516    0.0000 </r>
       <r>   46.1339    0.0000 </r>
      </set>
      <set comment="kpoint 13">
       <r>   -3.9417    1.0000 </r>
       <r>   -1.8717    1.0000 </r>
       <r>   10.1773    1.0000 </r>
       <r>   10.4199    1.0000 </r>
       <r>   23.7845    0.0000 </r>
       <r>   25.1571    0.0000 </r>
       <r>   28.4184    0.0000 </r>
       <r>   33.1753    0.0000 </r>
       <r>   40.2732    0.0000 </r>
       <r>   44.8486    0.0000 </r>
       <r>   45.3627    0.0000 </r>
       <r>   45.6985    0.0000 </r>
      </set>
      <set comment="kpoint 14">
       <r>   -4.6954    1.0000 </r>
       <r>   -0.9905    1.0000 </r>
       <r>    9.8775    1.0000 </r>
       <r>   10.8215    1.0000 </r>
       <r>   24.1786    0.0000 </r>
       <r>   24.7876    0.0000 </r>
       <r>   28.3104    0.0000 </r>
       <r>   33.3062    0.0000 </r>
       <r>   40.4305    0.0000 </r>
       <r>   42.6819    0.0000 </r>
       <r>   45.6932    0.0000 </r>
       <r>   46.2594    0.0000 </r>
      </set>
      <set comment="kpoint 15">
       <r>   -6.8409    1.0000 </r>
       <r>    2.0276    1.0000 </r>
       <r>    9.9149    1.0000 </r>
       <r>   11.5157    1.0000 </r>
       <r>   24.3965    0.0000 </r>
       <r>   24.6772    0.0000 </r>
       <r>   27.6391    0.0000 </r>
       <r>   33.2324    0.0000 </r>
       <r>   39.6556    0.0000 </r>
       <r>   40.2690    0.0000 </r>
       <r>   44.7852    0.0000 </r>
       <r>   46.5669    0.0000 </r>
      </set>
      <set comment="kpoint 16">
       <r>   -8.5899    1.0000 </r>
       <r>    5.3350    1.0000 </r>
       <r>   10.3046    1.0000 </r>
       <r>   12.4312    1.0000 </r>
       <r>   23.7338    0.0000 </r>
       <r>   24.9378    0.0000 </r>
       <r>   26.4699    0.0000 </r>
       <r>   33.1991    0.0000 </r>
       <r>   37.8001    0.0000 </r>
       <r>   40.0957    0.0000 </r>
       <r>   43.2181    0.0000 </r>
       <r>   46.8643    0.0000 </r>
      </set>
      <set comment="kpoint 17">
       <r>   -9.8979    1.0000 </r>
       <r>    8.7439    1.0000 </r>
       <r>   11.0346    1.0000 </r>
       <r>   13.4240    1.0000 </r>
       <r>   22.6677    0.0000 </r>
       <r>   24.4061    0.0000 </r>
       <r>   24.9840    0.0000 </r>
       <r>   33.6361    0.0000 </r>
       <r>   37.6627    0.0000 </r>
       <r>   39.7210    0.0000 </r>
       <r>   42.3752    0.0000 </r>
       <r>   47.1076    0.0000 </r>
      </set>
      <set comment="kpoint 18">
       <r>  -10.7497    1.0000 </r>
       <r>   11.7826    1.0000 </r>
       <r>   12.1727    1.0000 </r>
       <r>   14.1630    1.0000 </r>
       <r>   21.6677    0.0000 </r>
       <r>   23.0001    0.0000 </r>
       <r>   23.4224    0.0000 </r>
       <r>   34.5411    0.0000 </r>
       <r>   39.0532    0.0000 </r>
       <r>   39.1668    0.0000 </r>
       <r>   42.3470    0.0000 </r>
       <r>   47.2880    0.0000 </r>
      </set>
      <set comment="kpoint 19">
       <r>  -10.1294    1.0000 </r>
       <r>   11.0566    1.0000 </r>
       <r>   11.0566    1.0000 </r>
       <r>   12.2255    1.0000 </r>
       <r>   20.3420    0.0000 </r>
       <r>   25.7037    0.0000 </r>
       <r>   25.7037    0.0000 </r>
       <r>   30.6559    0.0000 </r>
       <r>   39.9710    0.0000 </r>
       <r>   40.1186    0.0000 </r>
       <r>   46.2913    0.0000 </r>
       <r>   48.7166    0.0000 </r>
      </set>
      <set comment="kpoint 20">
       <r>   -9.2801    1.0000 </r>
       <r>    8.7398    1.0000 </r>
       <r>   10.0784    1.0000 </r>
       <r>   11.4575    1.0000 </r>
       <r>   20.7119    0.0000 </r>
       <r>   27.1908    0.0000 </r>
       <r>   27.2274    0.0000 </r>
       <r>   28.9758    0.0000 </r>
       <r>   40.5710    0.0000 </r>
       <r>   40.8964    0.0000 </r>
       <r>   45.5553    0.0000 </r>
       <r>   48.8864    0.0000 </r>
      </set>
      <set comment="kpoint 21">
       <r>   -7.9776    1.0000 </r>
       <r>    5.6364    1.0000 </r>
       <r>    9.4287    1.0000 </r>
       <r>   10.4346    1.0000 </r>
       <r>   21.6847    0.0000 </r>
       <r>   27.7176    0.0000 </r>
       <r>   27.9706    0.0000 </r>
       <r>   29.4589    0.0000 </r>
       <r>   40.5180    0.0000 </r>
       <r>   41.9715    0.0000 </r>
       <r>   45.6151    0.0000 </r>
       <r>   48.3253    0.0000 </r>
      </set>
      <set comment="kpoint 22">
       <r>   -6.2383    1.0000 </r>
       <r>    2.4861    1.0000 </r>
       <r>    9.1664    1.0000 </r>
       <r>    9.3166    1.0000 </r>
       <r>   22.2998    0.0000 </r>
       <r>   27.9497    0.0000 </r>
       <r>   28.7117    0.0000 </r>
       <r>   30.7183    0.0000 </r>
       <r>   39.8237    0.0000 </r>
       <r>   43.3816    0.0000 </r>
       <r>   46.6305    0.0000 </r>
       <r>   47.6796    0.0000 </r>
      </set>
      <set comment="kpoint 23">
       <r>   -4.1154    1.0000 </r>
       <r>   -0.4415    1.0000 </r>
       <r>    8.3623    1.0000 </r>
       <r>    9.3032    1.0000 </r>
       <r>   22.6598    0.0000 </r>
       <r>   27.4557    0.0000 </r>
       <r>   29.8453    0.0000 </r>
       <r>   32.3015    0.0000 </r>
       <r>   38.7908    0.0000 </r>
       <r>   44.9673    0.0000 </r>
       <r>   45.8419    0.0000 </r>
       <r>   47.2425    0.0000 </r>
      </set>
      <set comment="kpoint 24">
       <r>   -3.3914    1.0000 </r>
       <r>   -1.2732    1.0000 </r>
       <r>    7.7026    1.0000 </r>
       <r>    9.8187    1.0000 </r>
       <r>   23.1820    0.0000 </r>
       <r>   26.7992    0.0000 </r>
       <r>   30.0894    0.0000 </r>
       <r>   33.7900    0.0000 </r>
       <r>   38.0795    0.0000 </r>
       <r>   42.4584    0.0000 </r>
       <r>   45.7960    0.0000 </r>
       <r>   48.1241    0.0000 </r>
      </set>
      <set comment="kpoint 25">
       <r>   -5.5730    1.0000 </r>
       <r>    1.5137    1.0000 </r>
       <r>    7.4049    1.0000 </r>
       <r>   10.6592    1.0000 </r>
       <r>   23.9685    0.0000 </r>
       <r>   26.0255    0.0000 </r>
       <r>   29.4922    0.0000 </r>
       <r>   33.7056    0.0000 </r>
       <r>   38.7269    0.0000 </r>
       <r>   39.1271    0.0000 </r>
       <r>   45.8536    0.0000 </r>
       <r>   49.5494    0.0000 </r>
      </set>
      <set comment="kpoint 26">
       <r>   -7.4476    1.0000 </r>
       <r>    4.6530    1.0000 </r>
       <r>    7.5065    1.0000 </r>
       <r>   11.7184    1.0000 </r>
       <r>   24.8529    0.0000 </r>
       <r>   24.9706    0.0000 </r>
       <r>   28.1547    0.0000 </r>
       <r>   32.9770    0.0000 </r>
       <r>   37.0174    0.0000 </r>
       <r>   39.7283    0.0000 </r>
       <r>   45.1715    0.0000 </r>
       <r>   50.6201    0.0000 </r>
      </set>
      <set comment="kpoint 27">
       <r>   -8.8970    1.0000 </r>
       <r>    7.6618    1.0000 </r>
       <r>    8.2379    1.0000 </r>
       <r>   12.7806    1.0000 </r>
       <r>   23.6470    0.0000 </r>
       <r>   25.3225    0.0000 </r>
       <r>   26.3809    0.0000 </r>
       <r>   32.8061    0.0000 </r>
       <r>   36.5710    0.0000 </r>
       <r>   40.0537    0.0000 </r>
       <r>   43.9653    0.0000 </r>
       <r>   51.5654    0.0000 </r>
      </set>
      <set comment="kpoint 28">
       <r>   -8.5884    1.0000 </r>
       <r>    9.0311    1.0000 </r>
       <r>    9.0311    1.0000 </r>
       <r>    9.6193    1.0000 </r>
       <r>   19.8271    0.0000 </r>
       <r>   26.3302    0.0000 </r>
       <r>   29.1337    0.0000 </r>
       <r>   29.1337    0.0000 </r>
       <r>   41.5647    0.0000 </r>
       <r>   41.7758    0.0000 </r>
       <r>   48.2787    0.0000 </r>
       <r>   52.2526    0.0000 </r>
      </set>
      <set comment="kpoint 29">
       <r>   -7.4428    1.0000 </r>
       <r>    6.8500    1.0000 </r>
       <r>    8.3100    1.0000 </r>
       <r>    8.6559    1.0000 </r>
       <r>   20.2309    0.0000 </r>
       <r>   25.0917    0.0000 </r>
       <r>   30.4527    0.0000 </r>
       <r>   30.7394    0.0000 </r>
       <r>   41.9738    0.0000 </r>
       <r>   42.6470    0.0000 </r>
       <r>   48.6086    0.0000 </r>
       <r>   52.2125    0.0000 </r>
      </set>
      <set comment="kpoint 30">
       <r>   -5.8600    1.0000 </r>
       <r>    4.0932    1.0000 </r>
       <r>    7.3764    1.0000 </r>
       <r>    7.9883    1.0000 </r>
       <r>   21.0444    0.0000 </r>
       <r>   25.6645    0.0000 </r>
       <r>   30.8323    0.0000 </r>
       <r>   31.9536    0.0000 </r>
       <r>   41.2677    0.0000 </r>
       <r>   43.6952    0.0000 </r>
       <r>   48.7816    0.0000 </r>
       <r>   51.2344    0.0000 </r>
      </set>
      <set comment="kpoint 31">
       <r>   -3.8803    1.0000 </r>
       <r>    1.3046    1.0000 </r>
       <r>    6.1238    1.0000 </r>
       <r>    8.0879    1.0000 </r>
       <r>   21.4851    0.0000 </r>
       <r>   28.0739    0.0000 </r>
       <r>   30.4439    0.0000 </r>
       <r>   32.6884    0.0000 </r>
       <r>   39.4910    0.0000 </r>
       <r>   44.8026    0.0000 </r>
       <r>   46.7925    0.0000 </r>
       <r>   50.7099    0.0000 </r>
      </set>
      <set comment="kpoint 32">
       <r>   -2.0696    1.0000 </r>
       <r>   -0.7667    1.0000 </r>
       <r>    5.1652    1.0000 </r>
       <r>    8.5963    1.0000 </r>
       <r>   21.9921    0.0000 </r>
       <r>   29.6113    0.0000 </r>
       <r>   31.2343    0.0000 </r>
       <r>   32.9610    0.0000 </r>
       <r>   37.1619    0.0000 </r>
       <r>   42.9793    0.0000 </r>
       <r>   45.6505    0.0000 </r>
       <r>   51.1994    0.0000 </r>
      </set>
      <set comment="kpoint 33">
       <r>   -3.9062    1.0000 </r>
       <r>    1.4335    1.0000 </r>
       <r>    4.6011    1.0000 </r>
       <r>    9.4640    1.0000 </r>
       <r>   22.7989    0.0000 </r>
       <r>   28.4238    0.0000 </r>
       <r>   32.0940    0.0000 </r>
       <r>   34.1765    0.0000 </r>
       <r>   35.7111    0.0000 </r>
       <r>   39.5857    0.0000 </r>
       <r>   46.0535    0.0000 </r>
       <r>   52.4819    0.0000 </r>
      </set>
      <set comment="kpoint 34">
       <r>   -5.8719    1.0000 </r>
       <r>    4.1318    1.0000 </r>
       <r>    4.7034    1.0000 </r>
       <r>   10.5817    1.0000 </r>
       <r>   23.8582    0.0000 </r>
       <r>   26.7940    0.0000 </r>
       <r>   30.3502    0.0000 </r>
       <r>   33.4649    0.0000 </r>
       <r>   37.5255    0.0000 </r>
       <r>   38.0735    0.0000 </r>
       <r>   45.9094    0.0000 </r>
       <r>   53.7518    0.0000 </r>
      </set>
      <set comment="kpoint 35">
       <r>   -6.4564    1.0000 </r>
       <r>    6.3805    1.0000 </r>
       <r>    7.4952    1.0000 </r>
       <r>    7.4952    1.0000 </r>
       <r>   19.4764    0.0000 </r>
       <r>   23.1249    0.0000 </r>
       <r>   32.4724    0.0000 </r>
       <r>   32.4724    0.0000 </r>
       <r>   42.9986    0.0000 </r>
       <r>   43.2049    0.0000 </r>
       <r>   51.0601    0.0000 </r>
       <r>   55.5474    0.0000 </r>
      </set>
      <set comment="kpoint 36">
       <r>   -5.0340    1.0000 </r>
       <r>    4.5257    1.0000 </r>
       <r>    6.3150    1.0000 </r>
       <r>    7.0766    1.0000 </r>
       <r>   19.9699    0.0000 </r>
       <r>   22.6236    0.0000 </r>
       <r>   33.4986    0.0000 </r>
       <r>   33.8325    0.0000 </r>
       <r>   42.8808    0.0000 </r>
       <r>   43.8172    0.0000 </r>
       <r>   51.3201    0.0000 </r>
       <r>   54.6222    0.0000 </r>
      </set>
      <set comment="kpoint 37">
       <r>   -3.2112    1.0000 </r>
       <r>    2.6290    1.0000 </r>
       <r>    4.4362    1.0000 </r>
       <r>    7.0875    1.0000 </r>
       <r>   20.5654    0.0000 </r>
       <r>   24.2910    0.0000 </r>
       <r>   33.4272    0.0000 </r>
       <r>   34.6722    0.0000 </r>
       <r>   41.0659    0.0000 </r>
       <r>   44.5505    0.0000 </r>
       <r>   48.4079    0.0000 </r>
       <r>   54.0527    0.0000 </r>
      </set>
      <set comment="kpoint 38">
       <r>   -1.1846    1.0000 </r>
       <r>    0.6920    1.0000 </r>
       <r>    2.8720    1.0000 </r>
       <r>    7.5247    1.0000 </r>
       <r>   21.0181    0.0000 </r>
       <r>   27.5516    0.0000 </r>
       <r>   32.4704    0.0000 </r>
       <r>   35.0072    0.0000 </r>
       <r>   38.2151    0.0000 </r>
       <r>   44.4874    0.0000 </r>
       <r>   45.2745    0.0000 </r>
       <r>   54.3204    0.0000 </r>
      </set>
      <set comment="kpoint 39">
       <r>   -1.9455    1.0000 </r>
       <r>    1.5149    1.0000 </r>
       <r>    2.2032    1.0000 </r>
       <r>    8.3490    1.0000 </r>
       <r>   21.7535    0.0000 </r>
       <r>   30.7603    0.0000 </r>
       <r>   31.4021    0.0000 </r>
       <r>   34.9240    0.0000 </r>
       <r>   35.1266    0.0000 </r>
       <r>   41.3415    0.0000 </r>
       <r>   45.8287    0.0000 </r>
       <r>   54.3817    0.0000 </r>
      </set>
      <set comment="kpoint 40">
       <r>   -3.7748    1.0000 </r>
       <r>    2.8474    1.0000 </r>
       <r>    6.5472    1.0000 </r>
       <r>    6.5472    1.0000 </r>
       <r>   19.4594    0.0000 </r>
       <r>   21.0733    0.0000 </r>
       <r>   35.2550    0.0000 </r>
       <r>   35.2550    0.0000 </r>
       <r>   43.9247    0.0000 </r>
       <r>   44.0209    0.0000 </r>
       <r>   53.8105    0.0000 </r>
       <r>   53.8123    0.0000 </r>
      </set>
      <set comment="kpoint 41">
       <r>   -2.1158    1.0000 </r>
       <r>    1.1833    1.0000 </r>
       <r>    5.4917    1.0000 </r>
       <r>    6.4466    1.0000 </r>
       <r>   20.0027    0.0000 </r>
       <r>   21.2674    0.0000 </r>
       <r>   35.6431    0.0000 </r>
       <r>   36.0191    0.0000 </r>
       <r>   43.0609    0.0000 </r>
       <r>   44.3263    0.0000 </r>
       <r>   50.7591    0.0000 </r>
       <r>   53.6107    0.0000 </r>
      </set>
      <set comment="kpoint 42">
       <r>   -0.2427    1.0000 </r>
       <r>   -0.0854    1.0000 </r>
       <r>    3.5520    1.0000 </r>
       <r>    6.7819    1.0000 </r>
       <r>   20.3862    0.0000 </r>
       <r>   23.8632    0.0000 </r>
       <r>   34.6486    0.0000 </r>
       <r>   36.0388    0.0000 </r>
       <r>   40.5479    0.0000 </r>
       <r>   44.7949    0.0000 </r>
       <r>   47.1968    0.0000 </r>
       <r>   54.7222    0.0000 </r>
      </set>
      <set comment="kpoint 43">
       <r>   -0.6237    1.0000 </r>
       <r>   -0.6237    1.0000 </r>
       <r>    6.2273    1.0000 </r>
       <r>    6.2273    1.0000 </r>
       <r>   19.9310    0.0000 </r>
       <r>   19.9310    0.0000 </r>
       <r>   36.4619    0.0000 </r>
       <r>   36.4619    0.0000 </r>
       <r>   44.2377    0.0000 </r>
       <r>   44.2377    0.0000 </r>
       <r>   52.4376    0.0000 </r>
       <r>   52.4376    0.0000 </r>
      </set>
      <set comment="kpoint 44">
       <r>   -9.8204    1.0000 </r>
       <r>    9.6515    1.0000 </r>
       <r>   10.1095    1.0000 </r>
       <r>   12.9406    1.0000 </r>
       <r>   21.5775    0.0000 </r>
       <r>   25.5157    0.0000 </r>
       <r>   25.7020    0.0000 </r>
       <r>   31.4901    0.0000 </r>
       <r>   39.1926    0.0000 </r>
       <r>   39.9808    0.0000 </r>
       <r>   43.5376    0.0000 </r>
       <r>   49.5561    0.0000 </r>
      </set>
      <set comment="kpoint 45">
       <r>   -8.6665    1.0000 </r>
       <r>    6.6615    1.0000 </r>
       <r>    9.1544    1.0000 </r>
       <r>   12.0378    1.0000 </r>
       <r>   22.6632    0.0000 </r>
       <r>   26.0665    0.0000 </r>
       <r>   27.3296    0.0000 </r>
       <r>   30.8740    0.0000 </r>
       <r>   39.0085    0.0000 </r>
       <r>   40.4100    0.0000 </r>
       <r>   44.2189    0.0000 </r>
       <r>   49.0088    0.0000 </r>
      </set>
      <set comment="kpoint 46">
       <r>   -7.0677    1.0000 </r>
       <r>    3.4072    1.0000 </r>
       <r>    8.7212    1.0000 </r>
       <r>   10.9806    1.0000 </r>
       <r>   23.5000    0.0000 </r>
       <r>   25.9715    0.0000 </r>
       <r>   28.6351    0.0000 </r>
       <r>   31.5648    0.0000 </r>
       <r>   39.1965    0.0000 </r>
       <r>   40.8840    0.0000 </r>
       <r>   45.3548    0.0000 </r>
       <r>   48.4107    0.0000 </r>
      </set>
      <set comment="kpoint 47">
       <r>   -5.0551    1.0000 </r>
       <r>    0.3306    1.0000 </r>
       <r>    8.6313    1.0000 </r>
       <r>   10.0897    1.0000 </r>
       <r>   23.7097    0.0000 </r>
       <r>   25.8239    0.0000 </r>
       <r>   29.5156    0.0000 </r>
       <r>   32.8467    0.0000 </r>
       <r>   38.7902    0.0000 </r>
       <r>   42.6645    0.0000 </r>
       <r>   45.9204    0.0000 </r>
       <r>   47.6355    0.0000 </r>
      </set>
      <set comment="kpoint 48">
       <r>   -3.1117    1.0000 </r>
       <r>   -1.9773    1.0000 </r>
       <r>    8.6982    1.0000 </r>
       <r>    9.6835    1.0000 </r>
       <r>   23.7075    0.0000 </r>
       <r>   25.7619    0.0000 </r>
       <r>   29.8282    0.0000 </r>
       <r>   33.5734    0.0000 </r>
       <r>   38.4140    0.0000 </r>
       <r>   45.0782    0.0000 </r>
       <r>   45.2551    0.0000 </r>
       <r>   46.3411    0.0000 </r>
      </set>
      <set comment="kpoint 49">
       <r>   -8.2828    1.0000 </r>
       <r>    7.6468    1.0000 </r>
       <r>    8.1775    1.0000 </r>
       <r>   10.5346    1.0000 </r>
       <r>   21.1146    0.0000 </r>
       <r>   26.8199    0.0000 </r>
       <r>   28.8238    0.0000 </r>
       <r>   29.1491    0.0000 </r>
       <r>   41.1540    0.0000 </r>
       <r>   41.4447    0.0000 </r>
       <r>   46.0136    0.0000 </r>
       <r>   52.3540    0.0000 </r>
      </set>
      <set comment="kpoint 50">
       <r>   -6.8394    1.0000 </r>
       <r>    4.9270    1.0000 </r>
       <r>    7.4401    1.0000 </r>
       <r>    9.4477    1.0000 </r>
       <r>   22.1850    0.0000 </r>
       <r>   26.4313    0.0000 </r>
       <r>   29.4392    0.0000 </r>
       <r>   30.7703    0.0000 </r>
       <r>   40.6790    0.0000 </r>
       <r>   42.2471    0.0000 </r>
       <r>   46.5545    0.0000 </r>
       <r>   51.5602    0.0000 </r>
      </set>
      <set comment="kpoint 51">
       <r>   -4.9764    1.0000 </r>
       <r>    1.9620    1.0000 </r>
       <r>    7.1262    1.0000 </r>
       <r>    8.4878    1.0000 </r>
       <r>   22.7675    0.0000 </r>
       <r>   27.1788    0.0000 </r>
       <r>   30.1932    0.0000 </r>
       <r>   31.8592    0.0000 </r>
       <r>   39.1425    0.0000 </r>
       <r>   43.6182    0.0000 </r>
       <r>   46.8878    0.0000 </r>
       <r>   49.8986    0.0000 </r>
      </set>
      <set comment="kpoint 52">
       <r>   -2.8310    1.0000 </r>
       <r>   -0.7144    1.0000 </r>
       <r>    6.6669    1.0000 </r>
       <r>    8.3133    1.0000 </r>
       <r>   23.0940    0.0000 </r>
       <r>   27.3665    0.0000 </r>
       <r>   32.0018    0.0000 </r>
       <r>   32.5165    0.0000 </r>
       <r>   36.9722    0.0000 </r>
       <r>   44.8977    0.0000 </r>
       <r>   45.7515    0.0000 </r>
       <r>   48.7136    0.0000 </r>
      </set>
      <set comment="kpoint 53">
       <r>   -3.5554    1.0000 </r>
       <r>    0.1383    1.0000 </r>
       <r>    6.1716    1.0000 </r>
       <r>    8.9031    1.0000 </r>
       <r>   23.6252    0.0000 </r>
       <r>   26.8273    0.0000 </r>
       <r>   32.0126    0.0000 </r>
       <r>   33.4118    0.0000 </r>
       <r>   36.2109    0.0000 </r>
       <r>   42.4604    0.0000 </r>
       <r>   46.0445    0.0000 </r>
       <r>   49.9966    0.0000 </r>
      </set>
      <set comment="kpoint 54">
       <r>   -5.6465    1.0000 </r>
       <r>    3.0075    1.0000 </r>
       <r>    5.9813    1.0000 </r>
       <r>    9.8993    1.0000 </r>
       <r>   24.4153    0.0000 </r>
       <r>   25.7718    0.0000 </r>
       <r>   31.0213    0.0000 </r>
       <r>   31.8409    0.0000 </r>
       <r>   38.3513    0.0000 </r>
       <r>   40.1735    0.0000 </r>
       <r>   46.0494    0.0000 </r>
       <r>   51.9745    0.0000 </r>
      </set>
      <set comment="kpoint 55">
       <r>   -7.3714    1.0000 </r>
       <r>    5.8268    1.0000 </r>
       <r>    6.4279    1.0000 </r>
       <r>   11.0622    1.0000 </r>
       <r>   24.0326    0.0000 </r>
       <r>   25.5464    0.0000 </r>
       <r>   29.2927    0.0000 </r>
       <r>   30.8745    0.0000 </r>
       <r>   38.9715    0.0000 </r>
       <r>   40.0015    0.0000 </r>
       <r>   45.3949    0.0000 </r>
       <r>   53.8308    0.0000 </r>
      </set>
      <set comment="kpoint 56">
       <r>   -6.1579    1.0000 </r>
       <r>    5.7243    1.0000 </r>
       <r>    6.7020    1.0000 </r>
       <r>    7.7280    1.0000 </r>
       <r>   20.7708    0.0000 </r>
       <r>   24.1299    0.0000 </r>
       <r>   31.3563    0.0000 </r>
       <r>   32.5505    0.0000 </r>
       <r>   42.0886    0.0000 </r>
       <r>   43.2179    0.0000 </r>
       <r>   49.1741    0.0000 </r>
       <r>   54.9223    0.0000 </r>
      </set>
      <set comment="kpoint 57">
       <r>   -4.4527    1.0000 </r>
       <r>    3.5381    1.0000 </r>
       <r>    5.6174    1.0000 </r>
       <r>    6.9320    1.0000 </r>
       <r>   21.7554    0.0000 </r>
       <r>   24.9035    0.0000 </r>
       <r>   31.4478    0.0000 </r>
       <r>   33.8640    0.0000 </r>
       <r>   40.7152    0.0000 </r>
       <r>   43.8446    0.0000 </r>
       <r>   48.9130    0.0000 </r>
       <r>   52.6778    0.0000 </r>
      </set>
      <set comment="kpoint 58">
       <r>   -2.4065    1.0000 </r>
       <r>    1.0666    1.0000 </r>
       <r>    4.4687    1.0000 </r>
       <r>    7.0075    1.0000 </r>
       <r>   22.2008    0.0000 </r>
       <r>   27.5010    0.0000 </r>
       <r>   31.1264    0.0000 </r>
       <r>   34.2918    0.0000 </r>
       <r>   38.2613    0.0000 </r>
       <r>   44.3698    0.0000 </r>
       <r>   46.9150    0.0000 </r>
       <r>   51.9719    0.0000 </r>
      </set>
      <set comment="kpoint 59">
       <r>   -1.7866    1.0000 </r>
       <r>    0.4468    1.0000 </r>
       <r>    3.5958    1.0000 </r>
       <r>    7.6482    1.0000 </r>
       <r>   22.7538    0.0000 </r>
       <r>   29.0642    0.0000 </r>
       <r>   32.0587    0.0000 </r>
       <r>   33.7017    0.0000 </r>
       <r>   35.8259    0.0000 </r>
       <r>   42.8611    0.0000 </r>
       <r>   46.0400    0.0000 </r>
       <r>   52.8404    0.0000 </r>
      </set>
      <set comment="kpoint 60">
       <r>   -3.8293    1.0000 </r>
       <r>    2.7730    1.0000 </r>
       <r>    3.3907    1.0000 </r>
       <r>    8.6722    1.0000 </r>
       <r>   23.5961    0.0000 </r>
       <r>   27.6408    0.0000 </r>
       <r>   32.5681    0.0000 </r>
       <r>   33.3773    0.0000 </r>
       <r>   35.6538    0.0000 </r>
       <r>   40.8744    0.0000 </r>
       <r>   46.2198    0.0000 </r>
       <r>   53.5767    0.0000 </r>
      </set>
      <set comment="kpoint 61">
       <r>   -3.4915    1.0000 </r>
       <r>    2.9391    1.0000 </r>
       <r>    5.8019    1.0000 </r>
       <r>    6.0281    1.0000 </r>
       <r>   20.7370    0.0000 </r>
       <r>   22.2285    0.0000 </r>
       <r>   34.0331    0.0000 </r>
       <r>   35.2245    0.0000 </r>
       <r>   42.5560    0.0000 </r>
       <r>   43.7873    0.0000 </r>
       <r>   51.2114    0.0000 </r>
       <r>   52.9414    0.0000 </r>
      </set>
      <set comment="kpoint 62">
       <r>   -1.5922    1.0000 </r>
       <r>    1.4679    1.0000 </r>
       <r>    3.8742    1.0000 </r>
       <r>    6.0577    1.0000 </r>
       <r>   21.5100    0.0000 </r>
       <r>   24.0382    0.0000 </r>
       <r>   33.7182    0.0000 </r>
       <r>   35.3587    0.0000 </r>
       <r>   40.7396    0.0000 </r>
       <r>   43.7417    0.0000 </r>
       <r>   48.8371    0.0000 </r>
       <r>   53.0930    0.0000 </r>
      </set>
      <set comment="kpoint 63">
       <r>   -0.2164    1.0000 </r>
       <r>    0.6806    1.0000 </r>
       <r>    2.1346    1.0000 </r>
       <r>    6.6537    1.0000 </r>
       <r>   21.9948    0.0000 </r>
       <r>   27.4218    0.0000 </r>
       <r>   32.3795    0.0000 </r>
       <r>   34.5076    0.0000 </r>
       <r>   38.3902    0.0000 </r>
       <r>   43.5765    0.0000 </r>
       <r>   46.5866    0.0000 </r>
       <r>   53.9655    0.0000 </r>
      </set>
      <set comment="kpoint 64">
       <r>   -0.3802    1.0000 </r>
       <r>   -0.3802    1.0000 </r>
       <r>    5.5428    1.0000 </r>
       <r>    5.5428    1.0000 </r>
       <r>   21.1667    0.0000 </r>
       <r>   21.1667    0.0000 </r>
       <r>   35.7901    0.0000 </r>
       <r>   35.7901    0.0000 </r>
       <r>   43.1998    0.0000 </r>
       <r>   43.1998    0.0000 </r>
       <r>   51.5263    0.0000 </r>
       <r>   51.5263    0.0000 </r>
      </set>
      <set comment="kpoint 65">
       <r>   -5.2710    1.0000 </r>
       <r>    4.2990    1.0000 </r>
       <r>    5.0399    1.0000 </r>
       <r>    8.2298    1.0000 </r>
       <r>   23.8747    0.0000 </r>
       <r>   25.5214    0.0000 </r>
       <r>   29.9961    0.0000 </r>
       <r>   32.7993    0.0000 </r>
       <r>   39.4620    0.0000 </r>
       <r>   42.4301    0.0000 </r>
       <r>   46.9467    0.0000 </r>
       <r>   53.7195    0.0000 </r>
      </set>
      <set comment="kpoint 66">
       <r>   -3.3211    1.0000 </r>
       <r>    1.8516    1.0000 </r>
       <r>    4.7565    1.0000 </r>
       <r>    7.0966    1.0000 </r>
       <r>   24.4563    0.0000 </r>
       <r>   26.3744    0.0000 </r>
       <r>   30.7995    0.0000 </r>
       <r>   33.9975    0.0000 </r>
       <r>   37.0866    0.0000 </r>
       <r>   43.3549    0.0000 </r>
       <r>   47.0349    0.0000 </r>
       <r>   51.9173    0.0000 </r>
      </set>
      <set comment="kpoint 67">
       <r>   -1.5536    1.0000 </r>
       <r>   -0.1892    1.0000 </r>
       <r>    4.8608    1.0000 </r>
       <r>    6.5848    1.0000 </r>
       <r>   24.3303    0.0000 </r>
       <r>   27.1250    0.0000 </r>
       <r>   32.6651    0.0000 </r>
       <r>   32.8441    0.0000 </r>
       <r>   36.0306    0.0000 </r>
       <r>   44.1270    0.0000 </r>
       <r>   46.9431    0.0000 </r>
       <r>   50.8035    0.0000 </r>
      </set>
      <set comment="kpoint 68">
       <r>   -2.6613    1.0000 </r>
       <r>    2.7927    1.0000 </r>
       <r>    4.2256    1.0000 </r>
       <r>    5.3822    1.0000 </r>
       <r>   23.8471    0.0000 </r>
       <r>   24.7696    0.0000 </r>
       <r>   31.3312    0.0000 </r>
       <r>   34.7960    0.0000 </r>
       <r>   39.4378    0.0000 </r>
       <r>   43.3957    0.0000 </r>
       <r>   49.0802    0.0000 </r>
       <r>   52.2871    0.0000 </r>
      </set>
      <set comment="kpoint 69">
       <r>   -0.6933    1.0000 </r>
       <r>    1.1752    1.0000 </r>
       <r>    3.1896    1.0000 </r>
       <r>    5.0570    1.0000 </r>
       <r>   24.4379    0.0000 </r>
       <r>   27.0521    0.0000 </r>
       <r>   31.1462    0.0000 </r>
       <r>   33.0932    0.0000 </r>
       <r>   38.9964    0.0000 </r>
       <r>   43.0355    0.0000 </r>
       <r>   48.6021    0.0000 </r>
       <r>   52.0514    0.0000 </r>
      </set>
      <set comment="kpoint 70">
       <r>   -1.3847    1.0000 </r>
       <r>    1.7981    1.0000 </r>
       <r>    2.7154    1.0000 </r>
       <r>    5.8251    1.0000 </r>
       <r>   24.7930    0.0000 </r>
       <r>   27.5486    0.0000 </r>
       <r>   31.4021    0.0000 </r>
       <r>   32.5235    0.0000 </r>
       <r>   37.7741    0.0000 </r>
       <r>   43.1115    0.0000 </r>
       <r>   47.5517    0.0000 </r>
       <r>   52.7257    0.0000 </r>
      </set>
      <set comment="kpoint 71">
       <r>    0.2705    1.0000 </r>
       <r>    0.2705    1.0000 </r>
       <r>    4.1435    1.0000 </r>
       <r>    4.1435    1.0000 </r>
       <r>   24.1278    0.0000 </r>
       <r>   24.1278    0.0000 </r>
       <r>   33.4569    0.0000 </r>
       <r>   33.4569    0.0000 </r>
       <r>   41.6905    0.0000 </r>
       <r>   41.6905    0.0000 </r>
       <r>   50.7923    0.0000 </r>
       <r>   50.7923    0.0000 </r>
      </set>
      <set comment="kpoint 72">
       <r>    0.7925    1.0000 </r>
       <r>    0.7925    1.0000 </r>
       <r>    3.2954    1.0000 </r>
       <r>    3.2954    1.0000 </r>
       <r>   26.5374    0.0000 </r>
       <r>   26.5374    0.0000 </r>
       <r>   31.1488    0.0000 </r>
       <r>   31.1488    0.0000 </r>
       <r>   41.2075    0.0000 </r>
       <r>   41.2075    0.0000 </r>
       <r>   50.6049    0.0000 </r>
       <r>   50.6049    0.0000 </r>
      </set>
     </set>
    </set>
   </array>
  </eigenvalues>
  <separator name="orbital magnetization" >
   <v name="MAGDIPOLOUT">      0.00000000      0.00000000      0.00000000</v>
  </separator>
  <dos>
   <i name="efermi">     14.74251221 </i>
   <total>
    <array>
     <dimension dim="1">gridpoints</dimension>
     <dimension dim="2">spin</dimension>
     <field>energy</field>
     <field>total</field>
     <field>integrated</field>
     <set>
      <set comment="spin 1">
       <r>   -14.7169     0.0000     0.0000 </r>
       <r>   -14.4716     0.0000     0.0000 </r>
       <r>   -14.2262     0.0000     0.0000 </r>
       <r>   -13.9808     0.0000     0.0000 </r>
       <r>   -13.7355     0.0000     0.0000 </r>
       <r>   -13.4901     0.0000     0.0000 </r>
       <r>   -13.2447     0.0000     0.0000 </r>
       <r>   -12.9994     0.0000     0.0000 </r>
       <r>   -12.7540     0.0000     0.0000 </r>
       <r>   -12.5086     0.0000     0.0000 </r>
       <r>   -12.2633     0.0000     0.0000 </r>
       <r>   -12.0179     0.0000     0.0000 </r>
       <r>   -11.7725     0.0000     0.0000 </r>
       <r>   -11.5272     0.0000     0.0000 </r>
       <r>   -11.2818     0.0065     0.0002 </r>
       <r>   -11.0364     0.0403     0.0075 </r>
       <r>   -10.7910     0.0599     0.0197 </r>
       <r>   -10.5457     0.0735     0.0365 </r>
       <r>   -10.3003     0.0825     0.0554 </r>
       <r>   -10.0549     0.0945     0.0771 </r>
       <r>    -9.8096     0.1037     0.1017 </r>
       <r>    -9.5642     0.1109     0.1281 </r>
       <r>    -9.3188     0.1181     0.1561 </r>
       <r>    -9.0735     0.1269     0.1862 </r>
       <r>    -8.8281     0.1356     0.2184 </r>
       <r>    -8.5827     0.1406     0.2523 </r>
       <r>    -8.3374     0.1466     0.2875 </r>
       <r>    -8.0920     0.1528     0.3243 </r>
       <r>    -7.8466     0.1595     0.3626 </r>
       <r>    -7.6013     0.1665     0.4026 </r>
       <r>    -7.3559     0.1725     0.4442 </r>
       <r>    -7.1105     0.1775     0.4872 </r>
       <r>    -6.8652     0.1826     0.5313 </r>
       <r>    -6.6198     0.1883     0.5769 </r>
       <r>    -6.3744     0.1941     0.6238 </r>
       <r>    -6.1291     0.2000     0.6721 </r>
       <r>    -5.8837     0.2063     0.7220 </r>
       <r>    -5.6383     0.2118     0.7733 </r>
       <r>    -5.3930     0.2174     0.8260 </r>
       <r>    -5.1476     0.2232     0.8800 </r>
       <r>    -4.9022     0.2299     0.9356 </r>
       <r>    -4.6569     0.2386     0.9930 </r>
       <r>    -4.4115     0.2526     1.0531 </r>
       <r>    -4.1661     0.2738     1.1175 </r>
       <r>    -3.9208     0.3014     1.1884 </r>
       <r>    -3.6754     0.2815     1.2593 </r>
       <r>    -3.4300     0.2827     1.3281 </r>
       <r>    -3.1847     0.2923     1.3995 </r>
       <r>    -2.9393     0.2607     1.4680 </r>
       <r>    -2.6939     0.2323     1.5271 </r>
       <r>    -2.4486     0.2304     1.5837 </r>
       <r>    -2.2032     0.2326     1.6406 </r>
       <r>    -1.9578     0.2380     1.6976 </r>
       <r>    -1.7124     0.2858     1.7651 </r>
       <r>    -1.4671     0.2967     1.8362 </r>
       <r>    -1.2217     0.2940     1.9090 </r>
       <r>    -0.9763     0.2957     1.9811 </r>
       <r>    -0.7310     0.3003     2.0546 </r>
       <r>    -0.4856     0.2635     2.1234 </r>
       <r>    -0.2402     0.2389     2.1849 </r>
       <r>     0.0051     0.2434     2.2437 </r>
       <r>     0.2505     0.2613     2.3053 </r>
       <r>     0.4959     0.3262     2.3752 </r>
       <r>     0.7412     0.4838     2.4770 </r>
       <r>     0.9866     0.4837     2.5966 </r>
       <r>     1.2320     0.4247     2.7105 </r>
       <r>     1.4773     0.3356     2.8017 </r>
       <r>     1.7227     0.2960     2.8789 </r>
       <r>     1.9681     0.2913     2.9518 </r>
       <r>     2.2134     0.2634     3.0190 </r>
       <r>     2.4588     0.2746     3.0848 </r>
       <r>     2.7042     0.2991     3.1549 </r>
       <r>     2.9495     0.3662     3.2348 </r>
       <r>     3.1949     0.4733     3.3385 </r>
       <r>     3.4403     0.4217     3.4432 </r>
       <r>     3.6856     0.3977     3.5430 </r>
       <r>     3.9310     0.4258     3.6422 </r>
       <r>     4.1764     0.4115     3.7481 </r>
       <r>     4.4217     0.4263     3.8499 </r>
       <r>     4.6671     0.4495     3.9581 </r>
       <r>     4.9125     0.4506     4.0691 </r>
       <r>     5.1578     0.4494     4.1791 </r>
       <r>     5.4032     0.4562     4.2902 </r>
       <r>     5.6486     0.5159     4.4122 </r>
       <r>     5.8939     0.5705     4.5432 </r>
       <r>     6.1393     0.6059     4.6907 </r>
       <r>     6.3847     0.6712     4.8475 </r>
       <r>     6.6300     0.6193     5.0059 </r>
       <r>     6.8754     0.6105     5.1567 </r>
       <r>     7.1208     0.6090     5.3063 </r>
       <r>     7.3661     0.6084     5.4557 </r>
       <r>     7.6115     0.5959     5.6039 </r>
       <r>     7.8569     0.5806     5.7482 </r>
       <r>     8.1023     0.5689     5.8890 </r>
       <r>     8.3476     0.5767     6.0291 </r>
       <r>     8.5930     0.5733     6.1702 </r>
       <r>     8.8384     0.5648     6.3103 </r>
       <r>     9.0837     0.5514     6.4471 </r>
       <r>     9.3291     0.5339     6.5805 </r>
       <r>     9.5745     0.5197     6.7096 </r>
       <r>     9.8198     0.5120     6.8361 </r>
       <r>    10.0652     0.5140     6.9615 </r>
       <r>    10.3106     0.5152     7.0895 </r>
       <r>    10.5559     0.4917     7.2126 </r>
       <r>    10.8013     0.4626     7.3301 </r>
       <r>    11.0467     0.3577     7.4303 </r>
       <r>    11.2920     0.3172     7.5132 </r>
       <r>    11.5374     0.2723     7.5855 </r>
       <r>    11.7828     0.2464     7.6490 </r>
       <r>    12.0281     0.2220     7.7064 </r>
       <r>    12.2735     0.2036     7.7584 </r>
       <r>    12.5189     0.1808     7.8055 </r>
       <r>    12.7642     0.1606     7.8473 </r>
       <r>    13.0096     0.1416     7.8844 </r>
       <r>    13.2550     0.1200     7.9165 </r>
       <r>    13.5003     0.1005     7.9436 </r>
       <r>    13.7457     0.0783     7.9654 </r>
       <r>    13.9911     0.0672     7.9828 </r>
       <r>    14.2364     0.0191     7.9979 </r>
       <r>    14.4818     0.0014     8.0000 </r>
       <r>    14.7272     0.0000     8.0000 </r>
       <r>    14.9725     0.0000     8.0000 </r>
       <r>    15.2179     0.0000     8.0000 </r>
       <r>    15.4633     0.0000     8.0000 </r>
       <r>    15.7086     0.0000     8.0000 </r>
       <r>    15.9540     0.0000     8.0000 </r>
       <r>    16.1994     0.0000     8.0000 </r>
       <r>    16.4447     0.0000     8.0000 </r>
       <r>    16.6901     0.0000     8.0000 </r>
       <r>    16.9355     0.0000     8.0000 </r>
       <r>    17.1809     0.0000     8.0000 </r>
       <r>    17.4262     0.0000     8.0000 </r>
       <r>    17.6716     0.0000     8.0000 </r>
       <r>    17.9170     0.0000     8.0000 </r>
       <r>    18.1623     0.0000     8.0000 </r>
       <r>    18.4077     0.0000     8.0000 </r>
       <r>    18.6531     0.0000     8.0000 </r>
       <r>    18.8984     0.0000     8.0000 </r>
       <r>    19.1438     0.0000     8.0000 </r>
       <r>    19.3892     0.0000     8.0000 </r>
       <r>    19.6345     0.0249     8.0019 </r>
       <r>    19.8799     0.0843     8.0148 </r>
       <r>    20.1253     0.1409     8.0430 </r>
       <r>    20.3706     0.1888     8.0835 </r>
       <r>    20.6160     0.2351     8.1355 </r>
       <r>    20.8614     0.2861     8.1993 </r>
       <r>    21.1067     0.3534     8.2774 </r>
       <r>    21.3521     0.4141     8.3725 </r>
       <r>    21.5975     0.4204     8.4760 </r>
       <r>    21.8428     0.4325     8.5792 </r>
       <r>    22.0882     0.4604     8.6887 </r>
       <r>    22.3336     0.4897     8.8052 </r>
       <r>    22.5789     0.5253     8.9296 </r>
       <r>    22.8243     0.5699     9.0637 </r>
       <r>    23.0697     0.6342     9.2109 </r>
       <r>    23.3150     0.7496     9.3808 </r>
       <r>    23.5604     0.8491     9.5770 </r>
       <r>    23.8058     0.9351     9.7940 </r>
       <r>    24.0511     0.8462    10.0121 </r>
       <r>    24.2965     0.5991    10.1987 </r>
       <r>    24.5419     0.4649    10.3280 </r>
       <r>    24.7872     0.3889    10.4280 </r>
       <r>    25.0326     0.4856    10.5347 </r>
       <r>    25.2780     0.5590    10.6645 </r>
       <r>    25.5233     0.5818    10.8046 </r>
       <r>    25.7687     0.6431    10.9603 </r>
       <r>    26.0141     0.6423    11.1304 </r>
       <r>    26.2595     0.6332    11.2868 </r>
       <r>    26.5048     0.6175    11.4405 </r>
       <r>    26.7502     0.6202    11.5914 </r>
       <r>    26.9956     0.6575    11.7482 </r>
       <r>    27.2409     0.5969    11.9101 </r>
       <r>    27.4863     0.4591    12.0361 </r>
       <r>    27.7317     0.4091    12.1423 </r>
       <r>    27.9770     0.3785    12.2387 </r>
       <r>    28.2224     0.3672    12.3301 </r>
       <r>    28.4678     0.3159    12.4150 </r>
       <r>    28.7131     0.2990    12.4905 </r>
       <r>    28.9585     0.2841    12.5619 </r>
       <r>    29.2039     0.3247    12.6410 </r>
       <r>    29.4492     0.3382    12.7228 </r>
       <r>    29.6946     0.3338    12.8052 </r>
       <r>    29.9400     0.3332    12.8868 </r>
       <r>    30.1853     0.3549    12.9708 </r>
       <r>    30.4307     0.3978    13.0625 </r>
       <r>    30.6761     0.4543    13.1672 </r>
       <r>    30.9214     0.5363    13.2871 </r>
       <r>    31.1668     0.8701    13.4384 </r>
       <r>    31.4122     0.6510    13.6207 </r>
       <r>    31.6575     0.7239    13.7890 </r>
       <r>    31.9029     0.7823    13.9743 </r>
       <r>    32.1483     0.7595    14.1723 </r>
       <r>    32.3936     0.5969    14.3354 </r>
       <r>    32.6390     0.6460    14.4825 </r>
       <r>    32.8844     0.8400    14.6612 </r>
       <r>    33.1297     1.0375    14.8994 </r>
       <r>    33.3751     0.8430    15.1296 </r>
       <r>    33.6205     0.6936    15.3232 </r>
       <r>    33.8658     0.4712    15.4634 </r>
       <r>    34.1112     0.3803    15.5659 </r>
       <r>    34.3566     0.3292    15.6529 </r>
       <r>    34.6019     0.2846    15.7279 </r>
       <r>    34.8473     0.2546    15.7938 </r>
       <r>    35.0927     0.2034    15.8505 </r>
       <r>    35.3381     0.1799    15.8963 </r>
       <r>    35.5834     0.2105    15.9435 </r>
       <r>    35.8288     0.2132    15.9984 </r>
       <r>    36.0742     0.1907    16.0514 </r>
       <r>    36.3195     0.1831    16.0973 </r>
       <r>    36.5649     0.1947    16.1433 </r>
       <r>    36.8103     0.2078    16.1927 </r>
       <r>    37.0556     0.2237    16.2453 </r>
       <r>    37.3010     0.2495    16.3033 </r>
       <r>    37.5464     0.2807    16.3682 </r>
       <r>    37.7917     0.3129    16.4411 </r>
       <r>    38.0371     0.3453    16.5218 </r>
       <r>    38.2825     0.3798    16.6106 </r>
       <r>    38.5278     0.4422    16.7104 </r>
       <r>    38.7732     0.5242    16.8289 </r>
       <r>    39.0186     0.6241    16.9698 </r>
       <r>    39.2639     0.6660    17.1315 </r>
       <r>    39.5093     0.6717    17.2915 </r>
       <r>    39.7547     0.6723    17.4538 </r>
       <r>    40.0000     0.7775    17.6340 </r>
       <r>    40.2454     0.6872    17.8197 </r>
       <r>    40.4908     0.5815    17.9732 </r>
       <r>    40.7361     0.5324    18.1095 </r>
       <r>    40.9815     0.4841    18.2344 </r>
       <r>    41.2269     0.4398    18.3473 </r>
       <r>    41.4722     0.4152    18.4518 </r>
       <r>    41.7176     0.4068    18.5524 </r>
       <r>    41.9630     0.4058    18.6520 </r>
       <r>    42.2083     0.4164    18.7525 </r>
       <r>    42.4537     0.4625    18.8594 </r>
       <r>    42.6991     0.5204    18.9795 </r>
       <r>    42.9444     0.6027    19.1158 </r>
       <r>    43.1898     0.7720    19.2891 </r>
       <r>    43.4352     0.6814    19.4712 </r>
       <r>    43.6805     0.8133    19.6503 </r>
       <r>    43.9259     0.7519    19.8502 </r>
       <r>    44.1713     0.6731    20.0243 </r>
       <r>    44.4167     0.5159    20.1716 </r>
       <r>    44.6620     0.3457    20.2818 </r>
       <r>    44.9074     0.2516    20.3541 </r>
       <r>    45.1528     0.2154    20.4064 </r>
       <r>    45.3981     0.4696    20.4810 </r>
       <r>    45.6435     0.6260    20.6119 </r>
       <r>    45.8889     1.0022    20.8313 </r>
       <r>    46.1342     0.8427    21.0948 </r>
       <r>    46.3796     0.6956    21.2713 </r>
       <r>    46.6250     0.6385    21.4364 </r>
       <r>    46.8703     0.5130    21.5775 </r>
       <r>    47.1157     0.4255    21.6899 </r>
       <r>    47.3611     0.4127    21.7928 </r>
       <r>    47.6064     0.3986    21.8924 </r>
       <r>    47.8518     0.3862    21.9886 </r>
       <r>    48.0972     0.3739    22.0819 </r>
       <r>    48.3425     0.3610    22.1720 </r>
       <r>    48.5879     0.3470    22.2590 </r>
       <r>    48.8333     0.3323    22.3416 </r>
       <r>    49.0786     0.3264    22.4238 </r>
       <r>    49.3240     0.3069    22.5015 </r>
       <r>    49.5694     0.2899    22.5747 </r>
       <r>    49.8147     0.2749    22.6439 </r>
       <r>    50.0601     0.2616    22.7097 </r>
       <r>    50.3055     0.2504    22.7725 </r>
       <r>    50.5508     0.2414    22.8327 </r>
       <r>    50.7962     0.2454    22.8916 </r>
       <r>    51.0416     0.2709    22.9554 </r>
       <r>    51.2869     0.2758    23.0228 </r>
       <r>    51.5323     0.2906    23.0918 </r>
       <r>    51.7777     0.3262    23.1673 </r>
       <r>    52.0230     0.4449    23.2561 </r>
       <r>    52.2684     0.5000    23.3721 </r>
       <r>    52.5138     0.4023    23.4764 </r>
       <r>    52.7591     0.4050    23.5760 </r>
       <r>    53.0045     0.3775    23.6747 </r>
       <r>    53.2499     0.3096    23.7573 </r>
       <r>    53.4953     0.2642    23.8277 </r>
       <r>    53.7406     0.1947    23.8851 </r>
       <r>    53.9860     0.1498    23.9269 </r>
       <r>    54.2314     0.1240    23.9599 </r>
       <r>    54.4767     0.0499    23.9820 </r>
       <r>    54.7221     0.0285    23.9907 </r>
       <r>    54.9675     0.0175    23.9966 </r>
       <r>    55.2128     0.0058    23.9993 </r>
       <r>    55.4582     0.0004    24.0000 </r>
       <r>    55.7036     0.0000    24.0000 </r>
       <r>    55.9489     0.0000    24.0000 </r>
       <r>    56.1943     0.0000    24.0000 </r>
       <r>    56.4397     0.0000    24.0000 </r>
       <r>    56.6850     0.0000    24.0000 </r>
       <r>    56.9304     0.0000    24.0000 </r>
       <r>    57.1758     0.0000    24.0000 </r>
       <r>    57.4211     0.0000    24.0000 </r>
       <r>    57.6665     0.0000    24.0000 </r>
       <r>    57.9119     0.0000    24.0000 </r>
       <r>    58.1572     0.0000    24.0000 </r>
       <r>    58.4026     0.0000    24.0000 </r>
       <r>    58.6480     0.0000    24.0000 </r>
       <r>    58.8933     0.0000    24.0000 </r>
      </set>
     </set>
    </array>
   </total>
  </dos>
 </calculation>
 <structure name="finalpos" >
  <crystal>
   <varray name="basis" >
    <v>      -1.61399000       0.00000000       1.61399000 </v>
    <v>       0.00000000       1.61399000       1.61399000 </v>
    <v>      -1.61399000       1.61399000       0.00000000 </v>
   </varray>
   <i name="volume">      8.40877079 </i>
   <varray name="rec_basis" >
    <v>      -0.30979126      -0.30979126       0.30979126 </v>
    <v>       0.30979126       0.30979126       0.30979126 </v>
    <v>      -0.30979126       0.30979126      -0.30979126 </v>
   </varray>
  </crystal>
  <varray name="positions" >
   <v>       0.87500000       0.87500000       0.87500000 </v>
   <v>       0.12500000       0.12500000       0.12500000 </v>
  </varray>
 </structure>
</modeling>
