 vasp.5.3.3 18Dez12 (build Oct 01 2014 18:44:37) complex                        
  
 executed on             LinuxIFC date 2014.10.29  16:24:49
 running on    4 total cores
 distrk:  each k-point on    4 cores,    1 groups
 distr:  one band on NCORES_PER_BAND=   1 cores,    4 groups


--------------------------------------------------------------------------------------------------------


 INCAR:
 POTCAR:    PAW_PBE C 08Apr2002                   
 POTCAR:    PAW_PBE C 08Apr2002                   
   VRHFIN =C: s2p2                                                              
   LEXCH  = PE                                                                  
   EATOM  =   147.1560 eV,   10.8157 Ry                                         
                                                                                
   TITEL  = PAW_PBE C 08Apr2002                                                 
   LULTRA =        F    use ultrasoft PP ?                                      
   IUNSCR =        1    unscreen: 0-lin 1-nonlin 2-no                           
   RPACOR =    1.200    partial core radius                                     
   POMASS =   12.011; ZVAL   =    4.000    mass and valenz                      
   RCORE  =    1.500    outmost cutoff radius                                   
   RWIGS  =    1.630; RWIGS  =    0.863    wigner-seitz radius (au A)           
   ENMAX  =  400.000; ENMIN  =  300.000 eV                                      
   ICORE  =        2    local potential                                         
   LCOR   =        T    correct aug charges                                     
   LPAW   =        T    paw PP                                                  
   EAUG   =  644.873                                                            
   DEXC   =    0.000                                                            
   RMAX   =    1.529    core radius for proj-oper                               
   RAUG   =    1.300    factor for augmentation sphere                          
   RDEP   =    1.501    radius for radial grids                                 
   RDEPT  =    1.300    core radius for aug-charge                              
                                                                                
   Atomic configuration                                                         
    4 entries                                                                   
     n  l   j            E        occ.                                          
     1  0  0.50      -273.3789   2.0000                                         
     2  0  0.50       -13.7508   2.0000                                         
     2  1  0.50        -5.2854   2.0000                                         
     3  2  1.50        -5.4423   0.0000                                         
   Description                                                                  
     l       E           TYP  RCUT    TYP  RCUT                                 
     0    -13.7508458     23  1.200                                             
     0     -8.2022199     23  1.200                                             
     1     -5.2854383     23  1.500                                             
     1     34.0145650     23  1.500                                             
     2     -5.4423304      7  1.500                                             
  local pseudopotential read in
  partial core-charges read in
  partial kinetic energy density read in
  atomic valenz-charges read in
  non local Contribution for L=           0  read in
    real space projection operators read in
  non local Contribution for L=           0  read in
    real space projection operators read in
  non local Contribution for L=           1  read in
    real space projection operators read in
  non local Contribution for L=           1  read in
    real space projection operators read in
    PAW grid and wavefunctions read in
 
   number of l-projection  operators is LMAX  =           4
   number of lm-projection operators is LMMAX =           8
 
  PAW_PBE C 08Apr2002                   :
 energy of atom  1       EATOM= -147.1560
 kinetic energy error for atom=    0.0076 (will be added to EATOM!!)
 
 
 POSCAR: Diamond                                 
  positions in direct lattice
  No initial velocities read in
 exchange correlation table for  LEXCH =        8
   RHO(1)=    0.500       N(1)  =     2000
   RHO(2)=  100.500       N(2)  =     4000
 


--------------------------------------------------------------------------------------------------------


 ion  position               nearest neighbor table
   1  0.875  0.875  0.875-   2 1.40   2 1.40   2 1.40   2 1.40
   2  0.125  0.125  0.125-   1 1.40   1 1.40   1 1.40   1 1.40
 
  LATTYP: Found a face centered cubic cell.
 ALAT       =     3.2279800000
  
  Lattice vectors:
  
 A1 = (  -1.6139900000,   0.0000000000,   1.6139900000)
 A2 = (   0.0000000000,   1.6139900000,   1.6139900000)
 A3 = (  -1.6139900000,   1.6139900000,   0.0000000000)


Analysis of symmetry for initial positions (statically):
=====================================================================
 Subroutine PRICEL returns:
 Original cell was already a primitive cell.
 

 Routine SETGRP: Setting up the symmetry group for a 
 face centered cubic supercell.


 Subroutine GETGRP returns: Found 48 space group operations
 (whereof 12 operations were pure point group operations)
 out of a pool of 48 trial point group operations.


The static configuration has the point symmetry D_3d.
 The point group associated with its full space group is O_h .


Analysis of symmetry for dynamics (positions and initial velocities):
=====================================================================
 Subroutine PRICEL returns:
 Original cell was already a primitive cell.
 

 Routine SETGRP: Setting up the symmetry group for a 
 face centered cubic supercell.


 Subroutine GETGRP returns: Found 48 space group operations
 (whereof 12 operations were pure point group operations)
 out of a pool of 48 trial point group operations.


The dynamic configuration has the point symmetry D_3d.
 The point group associated with its full space group is O_h .


 irot  :   1
 --------------------------------------------------------------------
 isymop:   1   0   0
           0   1   0
           0   0   1

 gtrans:     0.0000000     0.0000000     0.0000000

 ptrans:     0.0000000     0.0000000     0.0000000
 rotmap:
 (   1->   1)  (   2->   2) 


 irot  :   2
 --------------------------------------------------------------------
 isymop:  -1   0   0
           0  -1   0
           0   0  -1

 gtrans:     0.0000000     0.0000000     0.0000000

 ptrans:     0.0000000     0.0000000     0.0000000
 rotmap:
 (   1->   2)  (   2->   1) 


 irot  :   3
 --------------------------------------------------------------------
 isymop:   0   0   1
           1   0   0
           0   1   0

 gtrans:     0.0000000     0.0000000     0.0000000

 ptrans:     0.0000000     0.0000000     0.0000000
 rotmap:
 (   1->   1)  (   2->   2) 


 irot  :   4
 --------------------------------------------------------------------
 isymop:   0   0  -1
          -1   0   0
           0  -1   0

 gtrans:     0.0000000     0.0000000     0.0000000

 ptrans:     0.0000000     0.0000000     0.0000000
 rotmap:
 (   1->   2)  (   2->   1) 


 irot  :   5
 --------------------------------------------------------------------
 isymop:   0   1   0
           0   0   1
           1   0   0

 gtrans:     0.0000000     0.0000000     0.0000000

 ptrans:     0.0000000     0.0000000     0.0000000
 rotmap:
 (   1->   1)  (   2->   2) 


 irot  :   6
 --------------------------------------------------------------------
 isymop:   0  -1   0
           0   0  -1
          -1   0   0

 gtrans:     0.0000000     0.0000000     0.0000000

 ptrans:     0.0000000     0.0000000     0.0000000
 rotmap:
 (   1->   2)  (   2->   1) 


 irot  :   7
 --------------------------------------------------------------------
 isymop:  -1   0   0
           0   0  -1
           0  -1   0

 gtrans:     0.0000000     0.0000000     0.0000000

 ptrans:     0.0000000     0.0000000     0.0000000
 rotmap:
 (   1->   2)  (   2->   1) 


 irot  :   8
 --------------------------------------------------------------------
 isymop:   1   0   0
           0   0   1
           0   1   0

 gtrans:     0.0000000     0.0000000     0.0000000

 ptrans:     0.0000000     0.0000000     0.0000000
 rotmap:
 (   1->   1)  (   2->   2) 


 irot  :   9
 --------------------------------------------------------------------
 isymop:   0  -1   0
          -1   0   0
           0   0  -1

 gtrans:     0.0000000     0.0000000     0.0000000

 ptrans:     0.0000000     0.0000000     0.0000000
 rotmap:
 (   1->   2)  (   2->   1) 


 irot  :  10
 --------------------------------------------------------------------
 isymop:   0   1   0
           1   0   0
           0   0   1

 gtrans:     0.0000000     0.0000000     0.0000000

 ptrans:     0.0000000     0.0000000     0.0000000
 rotmap:
 (   1->   1)  (   2->   2) 


 irot  :  11
 --------------------------------------------------------------------
 isymop:   0   0  -1
           0  -1   0
          -1   0   0

 gtrans:     0.0000000     0.0000000     0.0000000

 ptrans:     0.0000000     0.0000000     0.0000000
 rotmap:
 (   1->   2)  (   2->   1) 


 irot  :  12
 --------------------------------------------------------------------
 isymop:   0   0   1
           0   1   0
           1   0   0

 gtrans:     0.0000000     0.0000000     0.0000000

 ptrans:     0.0000000     0.0000000     0.0000000
 rotmap:
 (   1->   1)  (   2->   2) 


 irot  :  13
 --------------------------------------------------------------------
 isymop:   1   1   1
           0   0  -1
          -1   0   0

 gtrans:     0.5000000     0.0000000     0.0000000

 ptrans:     0.0000000     0.0000000     0.0000000
 rotmap:
 (   1->   2)  (   2->   1) 


 irot  :  14
 --------------------------------------------------------------------
 isymop:  -1  -1  -1
           0   0   1
           1   0   0

 gtrans:     0.5000000     0.0000000     0.0000000

 ptrans:     0.0000000     0.0000000     0.0000000
 rotmap:
 (   1->   1)  (   2->   2) 


 irot  :  15
 --------------------------------------------------------------------
 isymop:   1   1   1
           0  -1   0
           0   0  -1

 gtrans:     0.5000000     0.0000000     0.0000000

 ptrans:     0.0000000     0.0000000     0.0000000
 rotmap:
 (   1->   2)  (   2->   1) 


 irot  :  16
 --------------------------------------------------------------------
 isymop:  -1  -1  -1
           0   1   0
           0   0   1

 gtrans:     0.5000000     0.0000000     0.0000000

 ptrans:     0.0000000     0.0000000     0.0000000
 rotmap:
 (   1->   1)  (   2->   2) 


 irot  :  17
 --------------------------------------------------------------------
 isymop:   1   1   1
          -1   0   0
           0  -1   0

 gtrans:     0.5000000     0.0000000     0.0000000

 ptrans:     0.0000000     0.0000000     0.0000000
 rotmap:
 (   1->   2)  (   2->   1) 


 irot  :  18
 --------------------------------------------------------------------
 isymop:  -1  -1  -1
           1   0   0
           0   1   0

 gtrans:     0.5000000     0.0000000     0.0000000

 ptrans:     0.0000000     0.0000000     0.0000000
 rotmap:
 (   1->   1)  (   2->   2) 


 irot  :  19
 --------------------------------------------------------------------
 isymop:   0   1   0
           1   0   0
          -1  -1  -1

 gtrans:     0.0000000     0.0000000     0.5000000

 ptrans:     0.0000000     0.0000000     0.0000000
 rotmap:
 (   1->   1)  (   2->   2) 


 irot  :  20
 --------------------------------------------------------------------
 isymop:   0  -1   0
          -1   0   0
           1   1   1

 gtrans:     0.0000000     0.0000000     0.5000000

 ptrans:     0.0000000     0.0000000     0.0000000
 rotmap:
 (   1->   2)  (   2->   1) 


 irot  :  21
 --------------------------------------------------------------------
 isymop:   1   0   0
           0   0   1
          -1  -1  -1

 gtrans:     0.0000000     0.0000000     0.5000000

 ptrans:     0.0000000     0.0000000     0.0000000
 rotmap:
 (   1->   1)  (   2->   2) 


 irot  :  22
 --------------------------------------------------------------------
 isymop:  -1   0   0
           0   0  -1
           1   1   1

 gtrans:     0.0000000     0.0000000     0.5000000

 ptrans:     0.0000000     0.0000000     0.0000000
 rotmap:
 (   1->   2)  (   2->   1) 


 irot  :  23
 --------------------------------------------------------------------
 isymop:   0   0   1
           0   1   0
          -1  -1  -1

 gtrans:     0.0000000     0.0000000     0.5000000

 ptrans:     0.0000000     0.0000000     0.0000000
 rotmap:
 (   1->   1)  (   2->   2) 


 irot  :  24
 --------------------------------------------------------------------
 isymop:   0   0  -1
           0  -1   0
           1   1   1

 gtrans:     0.0000000     0.0000000     0.5000000

 ptrans:     0.0000000     0.0000000     0.0000000
 rotmap:
 (   1->   2)  (   2->   1) 


 irot  :  25
 --------------------------------------------------------------------
 isymop:   0   0  -1
           1   1   1
           0  -1   0

 gtrans:     0.0000000     0.5000000     0.0000000

 ptrans:     0.0000000     0.0000000     0.0000000
 rotmap:
 (   1->   2)  (   2->   1) 


 irot  :  26
 --------------------------------------------------------------------
 isymop:   0   0   1
          -1  -1  -1
           0   1   0

 gtrans:     0.0000000     0.5000000     0.0000000

 ptrans:     0.0000000     0.0000000     0.0000000
 rotmap:
 (   1->   1)  (   2->   2) 


 irot  :  27
 --------------------------------------------------------------------
 isymop:   0  -1   0
           1   1   1
          -1   0   0

 gtrans:     0.0000000     0.5000000     0.0000000

 ptrans:     0.0000000     0.0000000     0.0000000
 rotmap:
 (   1->   2)  (   2->   1) 


 irot  :  28
 --------------------------------------------------------------------
 isymop:   0   1   0
          -1  -1  -1
           1   0   0

 gtrans:     0.0000000     0.5000000     0.0000000

 ptrans:     0.0000000     0.0000000     0.0000000
 rotmap:
 (   1->   1)  (   2->   2) 


 irot  :  29
 --------------------------------------------------------------------
 isymop:  -1   0   0
           1   1   1
           0   0  -1

 gtrans:     0.0000000     0.5000000     0.0000000

 ptrans:     0.0000000     0.0000000     0.0000000
 rotmap:
 (   1->   2)  (   2->   1) 


 irot  :  30
 --------------------------------------------------------------------
 isymop:   1   0   0
          -1  -1  -1
           0   0   1

 gtrans:     0.0000000     0.5000000     0.0000000

 ptrans:     0.0000000     0.0000000     0.0000000
 rotmap:
 (   1->   1)  (   2->   2) 


 irot  :  31
 --------------------------------------------------------------------
 isymop:  -1  -1  -1
           0   1   0
           1   0   0

 gtrans:     0.5000000     0.0000000     0.0000000

 ptrans:     0.0000000     0.0000000     0.0000000
 rotmap:
 (   1->   1)  (   2->   2) 


 irot  :  32
 --------------------------------------------------------------------
 isymop:   1   1   1
           0  -1   0
          -1   0   0

 gtrans:     0.5000000     0.0000000     0.0000000

 ptrans:     0.0000000     0.0000000     0.0000000
 rotmap:
 (   1->   2)  (   2->   1) 


 irot  :  33
 --------------------------------------------------------------------
 isymop:  -1  -1  -1
           1   0   0
           0   0   1

 gtrans:     0.5000000     0.0000000     0.0000000

 ptrans:     0.0000000     0.0000000     0.0000000
 rotmap:
 (   1->   1)  (   2->   2) 


 irot  :  34
 --------------------------------------------------------------------
 isymop:   1   1   1
          -1   0   0
           0   0  -1

 gtrans:     0.5000000     0.0000000     0.0000000

 ptrans:     0.0000000     0.0000000     0.0000000
 rotmap:
 (   1->   2)  (   2->   1) 


 irot  :  35
 --------------------------------------------------------------------
 isymop:  -1  -1  -1
           0   0   1
           0   1   0

 gtrans:     0.5000000     0.0000000     0.0000000

 ptrans:     0.0000000     0.0000000     0.0000000
 rotmap:
 (   1->   1)  (   2->   2) 


 irot  :  36
 --------------------------------------------------------------------
 isymop:   1   1   1
           0   0  -1
           0  -1   0

 gtrans:     0.5000000     0.0000000     0.0000000

 ptrans:     0.0000000     0.0000000     0.0000000
 rotmap:
 (   1->   2)  (   2->   1) 


 irot  :  37
 --------------------------------------------------------------------
 isymop:   0  -1   0
           0   0  -1
           1   1   1

 gtrans:     0.0000000     0.0000000     0.5000000

 ptrans:     0.0000000     0.0000000     0.0000000
 rotmap:
 (   1->   2)  (   2->   1) 


 irot  :  38
 --------------------------------------------------------------------
 isymop:   0   1   0
           0   0   1
          -1  -1  -1

 gtrans:     0.0000000     0.0000000     0.5000000

 ptrans:     0.0000000     0.0000000     0.0000000
 rotmap:
 (   1->   1)  (   2->   2) 


 irot  :  39
 --------------------------------------------------------------------
 isymop:  -1   0   0
           0  -1   0
           1   1   1

 gtrans:     0.0000000     0.0000000     0.5000000

 ptrans:     0.0000000     0.0000000     0.0000000
 rotmap:
 (   1->   2)  (   2->   1) 


 irot  :  40
 --------------------------------------------------------------------
 isymop:   1   0   0
           0   1   0
          -1  -1  -1

 gtrans:     0.0000000     0.0000000     0.5000000

 ptrans:     0.0000000     0.0000000     0.0000000
 rotmap:
 (   1->   1)  (   2->   2) 


 irot  :  41
 --------------------------------------------------------------------
 isymop:   0   0  -1
          -1   0   0
           1   1   1

 gtrans:     0.0000000     0.0000000     0.5000000

 ptrans:     0.0000000     0.0000000     0.0000000
 rotmap:
 (   1->   2)  (   2->   1) 


 irot  :  42
 --------------------------------------------------------------------
 isymop:   0   0   1
           1   0   0
          -1  -1  -1

 gtrans:     0.0000000     0.0000000     0.5000000

 ptrans:     0.0000000     0.0000000     0.0000000
 rotmap:
 (   1->   1)  (   2->   2) 


 irot  :  43
 --------------------------------------------------------------------
 isymop:   1   0   0
          -1  -1  -1
           0   1   0

 gtrans:     0.0000000     0.5000000     0.0000000

 ptrans:     0.0000000     0.0000000     0.0000000
 rotmap:
 (   1->   1)  (   2->   2) 


 irot  :  44
 --------------------------------------------------------------------
 isymop:  -1   0   0
           1   1   1
           0  -1   0

 gtrans:     0.0000000     0.5000000     0.0000000

 ptrans:     0.0000000     0.0000000     0.0000000
 rotmap:
 (   1->   2)  (   2->   1) 


 irot  :  45
 --------------------------------------------------------------------
 isymop:   0   0   1
          -1  -1  -1
           1   0   0

 gtrans:     0.0000000     0.5000000     0.0000000

 ptrans:     0.0000000     0.0000000     0.0000000
 rotmap:
 (   1->   1)  (   2->   2) 


 irot  :  46
 --------------------------------------------------------------------
 isymop:   0   0  -1
           1   1   1
          -1   0   0

 gtrans:     0.0000000     0.5000000     0.0000000

 ptrans:     0.0000000     0.0000000     0.0000000
 rotmap:
 (   1->   2)  (   2->   1) 


 irot  :  47
 --------------------------------------------------------------------
 isymop:   0   1   0
          -1  -1  -1
           0   0   1

 gtrans:     0.0000000     0.5000000     0.0000000

 ptrans:     0.0000000     0.0000000     0.0000000
 rotmap:
 (   1->   1)  (   2->   2) 


 irot  :  48
 --------------------------------------------------------------------
 isymop:   0  -1   0
           1   1   1
           0   0  -1

 gtrans:     0.0000000     0.5000000     0.0000000

 ptrans:     0.0000000     0.0000000     0.0000000
 rotmap:
 (   1->   2)  (   2->   1) 
 
 
 KPOINTS: Auto Kmesh                              

Automatic generation of k-mesh.
Space group operators:
 irot       det(A)        alpha          n_x          n_y          n_z        tau_x        tau_y        tau_z
    1     1.000000     0.000000     1.000000     0.000000     0.000000     0.000000     0.000000     0.000000
    2    -1.000000     0.000000     1.000000     0.000000     0.000000     0.000000     0.000000     0.000000
    3     1.000000   120.000000     0.577350    -0.577350    -0.577350     0.000000     0.000000     0.000000
    4    -1.000000   120.000000     0.577350    -0.577350    -0.577350     0.000000     0.000000     0.000000
    5     1.000000   120.000000    -0.577350     0.577350     0.577350     0.000000     0.000000     0.000000
    6    -1.000000   120.000000    -0.577350     0.577350     0.577350     0.000000     0.000000     0.000000
    7     1.000000   180.000000     0.707107     0.000000     0.707107     0.000000     0.000000     0.000000
    8    -1.000000   180.000000     0.707107     0.000000     0.707107     0.000000     0.000000     0.000000
    9     1.000000   180.000000     0.707107     0.707107     0.000000     0.000000     0.000000     0.000000
   10    -1.000000   180.000000     0.707107     0.707107     0.000000     0.000000     0.000000     0.000000
   11     1.000000   180.000000     0.000000    -0.707107     0.707107     0.000000     0.000000     0.000000
   12    -1.000000   180.000000     0.000000    -0.707107     0.707107     0.000000     0.000000     0.000000
   13     1.000000    90.000000     0.000000     0.000000    -1.000000     0.500000     0.000000     0.000000
   14    -1.000000    90.000000     0.000000     0.000000    -1.000000     0.500000     0.000000     0.000000
   15     1.000000   180.000000     0.707107     0.000000    -0.707107     0.500000     0.000000     0.000000
   16    -1.000000   180.000000     0.707107     0.000000    -0.707107     0.500000     0.000000     0.000000
   17     1.000000    90.000000    -1.000000     0.000000     0.000000     0.500000     0.000000     0.000000
   18    -1.000000    90.000000    -1.000000     0.000000     0.000000     0.500000     0.000000     0.000000
   19     1.000000   179.999999     0.000000     0.000000     1.000000     0.000000     0.000000     0.500000
   20    -1.000000   179.999999     0.000000     0.000000     1.000000     0.000000     0.000000     0.500000
   21     1.000000   120.000000    -0.577350    -0.577350     0.577350     0.000000     0.000000     0.500000
   22    -1.000000   120.000000    -0.577350    -0.577350     0.577350     0.000000     0.000000     0.500000
   23     1.000000   120.000000    -0.577350    -0.577350    -0.577350     0.000000     0.000000     0.500000
   24    -1.000000   120.000000    -0.577350    -0.577350    -0.577350     0.000000     0.000000     0.500000
   25     1.000000    90.000000     0.000000     0.000000     1.000000     0.000000     0.500000     0.000000
   26    -1.000000    90.000000     0.000000     0.000000     1.000000     0.000000     0.500000     0.000000
   27     1.000000    90.000000     0.000000    -1.000000     0.000000     0.000000     0.500000     0.000000
   28    -1.000000    90.000000     0.000000    -1.000000     0.000000     0.000000     0.500000     0.000000
   29     1.000000   180.000000     0.000000     0.707107     0.707107     0.000000     0.500000     0.000000
   30    -1.000000   180.000000     0.000000     0.707107     0.707107     0.000000     0.500000     0.000000
   31     1.000000   120.000000     0.577350     0.577350     0.577350     0.500000     0.000000     0.000000
   32    -1.000000   120.000000     0.577350     0.577350     0.577350     0.500000     0.000000     0.000000
   33     1.000000   120.000000     0.577350    -0.577350     0.577350     0.500000     0.000000     0.000000
   34    -1.000000   120.000000     0.577350    -0.577350     0.577350     0.500000     0.000000     0.000000
   35     1.000000   180.000000     0.000000     1.000000     0.000000     0.500000     0.000000     0.000000
   36    -1.000000   180.000000     0.000000     1.000000     0.000000     0.500000     0.000000     0.000000
   37     1.000000    90.000000     1.000000     0.000000     0.000000     0.000000     0.000000     0.500000
   38    -1.000000    90.000000     1.000000     0.000000     0.000000     0.000000     0.000000     0.500000
   39     1.000000   180.000000     0.707107    -0.707107     0.000000     0.000000     0.000000     0.500000
   40    -1.000000   180.000000     0.707107    -0.707107     0.000000     0.000000     0.000000     0.500000
   41     1.000000    90.000000     0.000000     1.000000     0.000000     0.000000     0.000000     0.500000
   42    -1.000000    90.000000     0.000000     1.000000     0.000000     0.000000     0.000000     0.500000
   43     1.000000   120.000000     0.577350     0.577350    -0.577350     0.000000     0.500000     0.000000
   44    -1.000000   120.000000     0.577350     0.577350    -0.577350     0.000000     0.500000     0.000000
   45     1.000000   180.000000     1.000000     0.000000     0.000000     0.000000     0.500000     0.000000
   46    -1.000000   180.000000     1.000000     0.000000     0.000000     0.000000     0.500000     0.000000
   47     1.000000   120.000000    -0.577350     0.577350    -0.577350     0.000000     0.500000     0.000000
   48    -1.000000   120.000000    -0.577350     0.577350    -0.577350     0.000000     0.500000     0.000000
 
 Subroutine IBZKPT returns following result:
 ===========================================
 
 Found     72 irreducible k-points:
 
 Following reciprocal coordinates:
            Coordinates               Weight
  0.000000  0.000000  0.000000      1.000000
  0.083333  0.000000  0.000000      8.000000
  0.166667  0.000000  0.000000      8.000000
  0.250000  0.000000  0.000000      8.000000
  0.333333  0.000000  0.000000      8.000000
  0.416667  0.000000  0.000000      8.000000
  0.500000  0.000000  0.000000      4.000000
  0.083333  0.083333  0.000000      6.000000
  0.166667  0.083333  0.000000     24.000000
  0.250000  0.083333  0.000000     24.000000
  0.333333  0.083333  0.000000     24.000000
  0.416667  0.083333  0.000000     24.000000
  0.500000  0.083333  0.000000     24.000000
 -0.416667  0.083333  0.000000     24.000000
 -0.333333  0.083333  0.000000     24.000000
 -0.250000  0.083333  0.000000     24.000000
 -0.166667  0.083333  0.000000     24.000000
 -0.083333  0.083333  0.000000     12.000000
  0.166667  0.166667  0.000000      6.000000
  0.250000  0.166667  0.000000     24.000000
  0.333333  0.166667  0.000000     24.000000
  0.416667  0.166667  0.000000     24.000000
  0.500000  0.166667  0.000000     24.000000
 -0.416667  0.166667  0.000000     24.000000
 -0.333333  0.166667  0.000000     24.000000
 -0.250000  0.166667  0.000000     24.000000
 -0.166667  0.166667  0.000000     12.000000
  0.250000  0.250000  0.000000      6.000000
  0.333333  0.250000  0.000000     24.000000
  0.416667  0.250000  0.000000     24.000000
  0.500000  0.250000  0.000000     24.000000
 -0.416667  0.250000  0.000000     24.000000
 -0.333333  0.250000  0.000000     24.000000
 -0.250000  0.250000  0.000000     12.000000
  0.333333  0.333333  0.000000      6.000000
  0.416667  0.333333  0.000000     24.000000
  0.500000  0.333333  0.000000     24.000000
 -0.416667  0.333333  0.000000     24.000000
 -0.333333  0.333333  0.000000     12.000000
  0.416667  0.416667  0.000000      6.000000
  0.500000  0.416667  0.000000     24.000000
 -0.416667  0.416667  0.000000     12.000000
  0.500000  0.500000  0.000000      3.000000
  0.250000  0.166667  0.083333     24.000000
  0.333333  0.166667  0.083333     48.000000
  0.416667  0.166667  0.083333     48.000000
  0.500000  0.166667  0.083333     48.000000
 -0.416667  0.166667  0.083333     24.000000
  0.333333  0.250000  0.083333     24.000000
  0.416667  0.250000  0.083333     48.000000
  0.500000  0.250000  0.083333     48.000000
 -0.416667  0.250000  0.083333     48.000000
 -0.333333  0.250000  0.083333     48.000000
 -0.250000  0.250000  0.083333     48.000000
 -0.166667  0.250000  0.083333     24.000000
  0.416667  0.333333  0.083333     24.000000
  0.500000  0.333333  0.083333     48.000000
 -0.416667  0.333333  0.083333     48.000000
 -0.333333  0.333333  0.083333     48.000000
 -0.250000  0.333333  0.083333     24.000000
  0.500000  0.416667  0.083333     24.000000
 -0.416667  0.416667  0.083333     48.000000
 -0.333333  0.416667  0.083333     24.000000
 -0.416667  0.500000  0.083333     12.000000
  0.500000  0.333333  0.166667     24.000000
 -0.416667  0.333333  0.166667     48.000000
 -0.333333  0.333333  0.166667     24.000000
 -0.416667  0.416667  0.166667     24.000000
 -0.333333  0.416667  0.166667     48.000000
 -0.250000  0.416667  0.166667     24.000000
 -0.333333  0.500000  0.166667     12.000000
 -0.250000  0.500000  0.250000      6.000000
 
 Following cartesian coordinates:
            Coordinates               Weight
  0.000000  0.000000  0.000000      1.000000
 -0.025816 -0.025816  0.025816      8.000000
 -0.051632 -0.051632  0.051632      8.000000
 -0.077448 -0.077448  0.077448      8.000000
 -0.103264 -0.103264  0.103264      8.000000
 -0.129080 -0.129080  0.129080      8.000000
 -0.154896 -0.154896  0.154896      4.000000
  0.000000  0.000000  0.051632      6.000000
 -0.025816 -0.025816  0.077448     24.000000
 -0.051632 -0.051632  0.103264     24.000000
 -0.077448 -0.077448  0.129080     24.000000
 -0.103264 -0.103264  0.154896     24.000000
 -0.129080 -0.129080  0.180712     24.000000
  0.154896  0.154896 -0.103264     24.000000
  0.129080  0.129080 -0.077448     24.000000
  0.103264  0.103264 -0.051632     24.000000
  0.077448  0.077448 -0.025816     24.000000
  0.051632  0.051632  0.000000     12.000000
  0.000000  0.000000  0.103264      6.000000
 -0.025816 -0.025816  0.129080     24.000000
 -0.051632 -0.051632  0.154896     24.000000
 -0.077448 -0.077448  0.180712     24.000000
 -0.103264 -0.103264  0.206528     24.000000
  0.180712  0.180712 -0.077448     24.000000
  0.154896  0.154896 -0.051632     24.000000
  0.129080  0.129080 -0.025816     24.000000
  0.103264  0.103264  0.000000     12.000000
  0.000000  0.000000  0.154896      6.000000
 -0.025816 -0.025816  0.180712     24.000000
 -0.051632 -0.051632  0.206528     24.000000
 -0.077448 -0.077448  0.232343     24.000000
  0.206528  0.206528 -0.051632     24.000000
  0.180712  0.180712 -0.025816     24.000000
  0.154896  0.154896  0.000000     12.000000
  0.000000  0.000000  0.206528      6.000000
 -0.025816 -0.025816  0.232343     24.000000
 -0.051632 -0.051632  0.258159     24.000000
  0.232343  0.232343 -0.025816     24.000000
  0.206528  0.206528  0.000000     12.000000
  0.000000  0.000000  0.258159      6.000000
 -0.025816 -0.025816  0.283975     24.000000
  0.258159  0.258159  0.000000     12.000000
  0.000000  0.000000  0.309791      3.000000
 -0.051632  0.000000  0.103264     24.000000
 -0.077448 -0.025816  0.129080     48.000000
 -0.103264 -0.051632  0.154896     48.000000
 -0.129080 -0.077448  0.180712     48.000000
  0.154896  0.206528 -0.103264     24.000000
 -0.051632  0.000000  0.154896     24.000000
 -0.077448 -0.025816  0.180712     48.000000
 -0.103264 -0.051632  0.206528     48.000000
  0.180712  0.232343 -0.077448     48.000000
  0.154896  0.206528 -0.051632     48.000000
  0.129080  0.180712 -0.025816     48.000000
  0.103264  0.154896  0.000000     24.000000
 -0.051632 -0.000000  0.206528     24.000000
 -0.077448 -0.025816  0.232343     48.000000
  0.206528  0.258159 -0.051632     48.000000
  0.180712  0.232343 -0.025816     48.000000
  0.154896  0.206528 -0.000000     24.000000
 -0.051632  0.000000  0.258159     24.000000
  0.232343  0.283975 -0.025816     48.000000
  0.206528  0.258159  0.000000     24.000000
  0.258159  0.309791 -0.000000     12.000000
 -0.103264  0.000000  0.206528     24.000000
  0.180712  0.283975 -0.077448     48.000000
  0.154896  0.258159 -0.051632     24.000000
  0.206528  0.309791 -0.051632     24.000000
  0.180712  0.283975 -0.025816     48.000000
  0.154896  0.258159  0.000000     24.000000
  0.206528  0.309791 -0.000000     12.000000
  0.154896  0.309791  0.000000      6.000000
 
 TETIRR: Found    247 inequivalent tetrahedra from    10368
 
 Subroutine IBZKPT_HF returns following result:
 ==============================================
 
 Found   1728 k-points in 1st BZ
 the following   1728 k-points will be used (e.g. in the exchange kernel)
 Following reciprocal coordinates:   # in IRBZ
  0.000000  0.000000  0.000000       1 t-inv F
  0.083333  0.000000  0.000000       2 t-inv F
  0.166667  0.000000  0.000000       3 t-inv F
  0.250000  0.000000  0.000000       4 t-inv F
  0.333333  0.000000  0.000000       5 t-inv F
  0.416667  0.000000  0.000000       6 t-inv F
  0.500000  0.000000  0.000000       7 t-inv F
  0.083333  0.083333  0.000000       8 t-inv F
  0.166667  0.083333  0.000000       9 t-inv F
  0.250000  0.083333  0.000000      10 t-inv F
  0.333333  0.083333  0.000000      11 t-inv F
  0.416667  0.083333  0.000000      12 t-inv F
  0.500000  0.083333  0.000000      13 t-inv F
 -0.416667  0.083333  0.000000      14 t-inv F
 -0.333333  0.083333  0.000000      15 t-inv F
 -0.250000  0.083333  0.000000      16 t-inv F
 -0.166667  0.083333  0.000000      17 t-inv F
 -0.083333  0.083333  0.000000      18 t-inv F
  0.166667  0.166667  0.000000      19 t-inv F
  0.250000  0.166667  0.000000      20 t-inv F
  0.333333  0.166667  0.000000      21 t-inv F
  0.416667  0.166667  0.000000      22 t-inv F
  0.500000  0.166667  0.000000      23 t-inv F
 -0.416667  0.166667  0.000000      24 t-inv F
 -0.333333  0.166667  0.000000      25 t-inv F
 -0.250000  0.166667  0.000000      26 t-inv F
 -0.166667  0.166667  0.000000      27 t-inv F
  0.250000  0.250000  0.000000      28 t-inv F
  0.333333  0.250000  0.000000      29 t-inv F
  0.416667  0.250000  0.000000      30 t-inv F
  0.500000  0.250000  0.000000      31 t-inv F
 -0.416667  0.250000  0.000000      32 t-inv F
 -0.333333  0.250000  0.000000      33 t-inv F
 -0.250000  0.250000  0.000000      34 t-inv F
  0.333333  0.333333  0.000000      35 t-inv F
  0.416667  0.333333  0.000000      36 t-inv F
  0.500000  0.333333  0.000000      37 t-inv F
 -0.416667  0.333333  0.000000      38 t-inv F
 -0.333333  0.333333  0.000000      39 t-inv F
  0.416667  0.416667  0.000000      40 t-inv F
  0.500000  0.416667  0.000000      41 t-inv F
 -0.416667  0.416667  0.000000      42 t-inv F
  0.500000  0.500000  0.000000      43 t-inv F
  0.250000  0.166667  0.083333      44 t-inv F
  0.333333  0.166667  0.083333      45 t-inv F
  0.416667  0.166667  0.083333      46 t-inv F
  0.500000  0.166667  0.083333      47 t-inv F
 -0.416667  0.166667  0.083333      48 t-inv F
  0.333333  0.250000  0.083333      49 t-inv F
  0.416667  0.250000  0.083333      50 t-inv F
  0.500000  0.250000  0.083333      51 t-inv F
 -0.416667  0.250000  0.083333      52 t-inv F
 -0.333333  0.250000  0.083333      53 t-inv F
 -0.250000  0.250000  0.083333      54 t-inv F
 -0.166667  0.250000  0.083333      55 t-inv F
  0.416667  0.333333  0.083333      56 t-inv F
  0.500000  0.333333  0.083333      57 t-inv F
 -0.416667  0.333333  0.083333      58 t-inv F
 -0.333333  0.333333  0.083333      59 t-inv F
 -0.250000  0.333333  0.083333      60 t-inv F
  0.500000  0.416667  0.083333      61 t-inv F
 -0.416667  0.416667  0.083333      62 t-inv F
 -0.333333  0.416667  0.083333      63 t-inv F
 -0.416667  0.500000  0.083333      64 t-inv F
  0.500000  0.333333  0.166667      65 t-inv F
 -0.416667  0.333333  0.166667      66 t-inv F
 -0.333333  0.333333  0.166667      67 t-inv F
 -0.416667  0.416667  0.166667      68 t-inv F
 -0.333333  0.416667  0.166667      69 t-inv F
 -0.250000  0.416667  0.166667      70 t-inv F
 -0.333333  0.500000  0.166667      71 t-inv F
 -0.250000  0.500000  0.250000      72 t-inv F
 -0.083333  0.000000  0.000000       2 t-inv F
  0.000000  0.083333  0.000000       2 t-inv F
  0.000000 -0.083333  0.000000       2 t-inv F
  0.000000  0.000000  0.083333       2 t-inv F
  0.000000  0.000000 -0.083333       2 t-inv F
  0.083333  0.083333  0.083333       2 t-inv F
 -0.083333 -0.083333 -0.083333       2 t-inv F
 -0.166667  0.000000  0.000000       3 t-inv F
  0.000000  0.166667  0.000000       3 t-inv F
  0.000000 -0.166667  0.000000       3 t-inv F
  0.000000  0.000000  0.166667       3 t-inv F
  0.000000  0.000000 -0.166667       3 t-inv F
  0.166667  0.166667  0.166667       3 t-inv F
 -0.166667 -0.166667 -0.166667       3 t-inv F
 -0.250000  0.000000  0.000000       4 t-inv F
  0.000000  0.250000  0.000000       4 t-inv F
  0.000000 -0.250000  0.000000       4 t-inv F
  0.000000  0.000000  0.250000       4 t-inv F
  0.000000  0.000000 -0.250000       4 t-inv F
  0.250000  0.250000  0.250000       4 t-inv F
 -0.250000 -0.250000 -0.250000       4 t-inv F
 -0.333333  0.000000  0.000000       5 t-inv F
  0.000000  0.333333  0.000000       5 t-inv F
  0.000000 -0.333333  0.000000       5 t-inv F
  0.000000  0.000000  0.333333       5 t-inv F
  0.000000  0.000000 -0.333333       5 t-inv F
  0.333333  0.333333  0.333333       5 t-inv F
 -0.333333 -0.333333 -0.333333       5 t-inv F
 -0.416667  0.000000  0.000000       6 t-inv F
  0.000000  0.416667  0.000000       6 t-inv F
  0.000000 -0.416667  0.000000       6 t-inv F
  0.000000  0.000000  0.416667       6 t-inv F
  0.000000  0.000000 -0.416667       6 t-inv F
  0.416667  0.416667  0.416667       6 t-inv F
 -0.416667 -0.416667 -0.416667       6 t-inv F
  0.000000  0.500000  0.000000       7 t-inv F
  0.000000  0.000000  0.500000       7 t-inv F
  0.500000  0.500000  0.500000       7 t-inv F
 -0.083333 -0.083333  0.000000       8 t-inv F
  0.000000  0.083333  0.083333       8 t-inv F
  0.000000 -0.083333 -0.083333       8 t-inv F
  0.083333  0.000000  0.083333       8 t-inv F
 -0.083333  0.000000 -0.083333       8 t-inv F
 -0.166667 -0.083333  0.000000       9 t-inv F
  0.000000  0.166667  0.083333       9 t-inv F
  0.000000 -0.166667 -0.083333       9 t-inv F
  0.083333  0.000000  0.166667       9 t-inv F
 -0.083333  0.000000 -0.166667       9 t-inv F
 -0.166667  0.000000 -0.083333       9 t-inv F
  0.166667  0.000000  0.083333       9 t-inv F
 -0.083333 -0.166667  0.000000       9 t-inv F
  0.083333  0.166667  0.000000       9 t-inv F
  0.000000 -0.083333 -0.166667       9 t-inv F
  0.000000  0.083333  0.166667       9 t-inv F
  0.083333  0.083333 -0.083333       9 t-inv F
 -0.083333 -0.083333  0.083333       9 t-inv F
  0.166667  0.083333  0.166667       9 t-inv F
 -0.166667 -0.083333 -0.166667       9 t-inv F
  0.083333 -0.083333 -0.083333       9 t-inv F
 -0.083333  0.083333  0.083333       9 t-inv F
  0.166667  0.166667  0.083333       9 t-inv F
 -0.166667 -0.166667 -0.083333       9 t-inv F
 -0.083333  0.083333 -0.083333       9 t-inv F
  0.083333 -0.083333  0.083333       9 t-inv F
  0.083333  0.166667  0.166667       9 t-inv F
 -0.083333 -0.166667 -0.166667       9 t-inv F
 -0.250000 -0.083333  0.000000      10 t-inv F
  0.000000  0.250000  0.083333      10 t-inv F
  0.000000 -0.250000 -0.083333      10 t-inv F
  0.083333  0.000000  0.250000      10 t-inv F
 -0.083333  0.000000 -0.250000      10 t-inv F
 -0.250000  0.000000 -0.083333      10 t-inv F
  0.250000  0.000000  0.083333      10 t-inv F
 -0.083333 -0.250000  0.000000      10 t-inv F
  0.083333  0.250000  0.000000      10 t-inv F
  0.000000 -0.083333 -0.250000      10 t-inv F
  0.000000  0.083333  0.250000      10 t-inv F
  0.083333  0.083333 -0.166667      10 t-inv F
 -0.083333 -0.083333  0.166667      10 t-inv F
  0.250000  0.166667  0.250000      10 t-inv F
 -0.250000 -0.166667 -0.250000      10 t-inv F
  0.166667 -0.083333 -0.083333      10 t-inv F
 -0.166667  0.083333  0.083333      10 t-inv F
  0.250000  0.250000  0.166667      10 t-inv F
 -0.250000 -0.250000 -0.166667      10 t-inv F
 -0.083333  0.166667 -0.083333      10 t-inv F
  0.083333 -0.166667  0.083333      10 t-inv F
  0.166667  0.250000  0.250000      10 t-inv F
 -0.166667 -0.250000 -0.250000      10 t-inv F
 -0.333333 -0.083333  0.000000      11 t-inv F
  0.000000  0.333333  0.083333      11 t-inv F
  0.000000 -0.333333 -0.083333      11 t-inv F
  0.083333  0.000000  0.333333      11 t-inv F
 -0.083333  0.000000 -0.333333      11 t-inv F
 -0.333333  0.000000 -0.083333      11 t-inv F
  0.333333  0.000000  0.083333      11 t-inv F
 -0.083333 -0.333333  0.000000      11 t-inv F
  0.083333  0.333333  0.000000      11 t-inv F
  0.000000 -0.083333 -0.333333      11 t-inv F
  0.000000  0.083333  0.333333      11 t-inv F
  0.083333  0.083333 -0.250000      11 t-inv F
 -0.083333 -0.083333  0.250000      11 t-inv F
  0.333333  0.250000  0.333333      11 t-inv F
 -0.333333 -0.250000 -0.333333      11 t-inv F
  0.250000 -0.083333 -0.083333      11 t-inv F
 -0.250000  0.083333  0.083333      11 t-inv F
  0.333333  0.333333  0.250000      11 t-inv F
 -0.333333 -0.333333 -0.250000      11 t-inv F
 -0.083333  0.250000 -0.083333      11 t-inv F
  0.083333 -0.250000  0.083333      11 t-inv F
  0.250000  0.333333  0.333333      11 t-inv F
 -0.250000 -0.333333 -0.333333      11 t-inv F
 -0.416667 -0.083333  0.000000      12 t-inv F
  0.000000  0.416667  0.083333      12 t-inv F
  0.000000 -0.416667 -0.083333      12 t-inv F
  0.083333  0.000000  0.416667      12 t-inv F
 -0.083333  0.000000 -0.416667      12 t-inv F
 -0.416667  0.000000 -0.083333      12 t-inv F
  0.416667  0.000000  0.083333      12 t-inv F
 -0.083333 -0.416667  0.000000      12 t-inv F
  0.083333  0.416667  0.000000      12 t-inv F
  0.000000 -0.083333 -0.416667      12 t-inv F
  0.000000  0.083333  0.416667      12 t-inv F
  0.083333  0.083333 -0.333333      12 t-inv F
 -0.083333 -0.083333  0.333333      12 t-inv F
  0.416667  0.333333  0.416667      12 t-inv F
 -0.416667 -0.333333 -0.416667      12 t-inv F
  0.333333 -0.083333 -0.083333      12 t-inv F
 -0.333333  0.083333  0.083333      12 t-inv F
  0.416667  0.416667  0.333333      12 t-inv F
 -0.416667 -0.416667 -0.333333      12 t-inv F
 -0.083333  0.333333 -0.083333      12 t-inv F
  0.083333 -0.333333  0.083333      12 t-inv F
  0.333333  0.416667  0.416667      12 t-inv F
 -0.333333 -0.416667 -0.416667      12 t-inv F
 -0.500000 -0.083333  0.000000      13 t-inv F
  0.000000  0.500000  0.083333      13 t-inv F
  0.000000 -0.500000 -0.083333      13 t-inv F
  0.083333  0.000000  0.500000      13 t-inv F
 -0.083333  0.000000 -0.500000      13 t-inv F
 -0.500000  0.000000 -0.083333      13 t-inv F
  0.500000  0.000000  0.083333      13 t-inv F
 -0.083333 -0.500000  0.000000      13 t-inv F
  0.083333  0.500000  0.000000      13 t-inv F
  0.000000 -0.083333 -0.500000      13 t-inv F
  0.000000  0.083333  0.500000      13 t-inv F
  0.083333  0.083333 -0.416667      13 t-inv F
 -0.083333 -0.083333  0.416667      13 t-inv F
  0.500000  0.416667  0.500000      13 t-inv F
 -0.500000 -0.416667 -0.500000      13 t-inv F
  0.416667 -0.083333 -0.083333      13 t-inv F
 -0.416667  0.083333  0.083333      13 t-inv F
  0.500000  0.500000  0.416667      13 t-inv F
 -0.500000 -0.500000 -0.416667      13 t-inv F
 -0.083333  0.416667 -0.083333      13 t-inv F
  0.083333 -0.416667  0.083333      13 t-inv F
  0.416667  0.500000  0.500000      13 t-inv F
 -0.416667 -0.500000 -0.500000      13 t-inv F
  0.416667 -0.083333  0.000000      14 t-inv F
  0.000000 -0.416667  0.083333      14 t-inv F
  0.000000  0.416667 -0.083333      14 t-inv F
  0.083333  0.000000 -0.416667      14 t-inv F
 -0.083333  0.000000  0.416667      14 t-inv F
  0.416667  0.000000 -0.083333      14 t-inv F
 -0.416667  0.000000  0.083333      14 t-inv F
 -0.083333  0.416667  0.000000      14 t-inv F
  0.083333 -0.416667  0.000000      14 t-inv F
  0.000000 -0.083333  0.416667      14 t-inv F
  0.000000  0.083333 -0.416667      14 t-inv F
  0.083333  0.083333  0.500000      14 t-inv F
 -0.083333 -0.083333 -0.500000      14 t-inv F
 -0.416667 -0.500000 -0.416667      14 t-inv F
  0.416667  0.500000  0.416667      14 t-inv F
 -0.500000 -0.083333 -0.083333      14 t-inv F
  0.500000  0.083333  0.083333      14 t-inv F
 -0.416667 -0.416667 -0.500000      14 t-inv F
  0.416667  0.416667  0.500000      14 t-inv F
 -0.083333 -0.500000 -0.083333      14 t-inv F
  0.083333  0.500000  0.083333      14 t-inv F
 -0.500000 -0.416667 -0.416667      14 t-inv F
  0.500000  0.416667  0.416667      14 t-inv F
  0.333333 -0.083333  0.000000      15 t-inv F
  0.000000 -0.333333  0.083333      15 t-inv F
  0.000000  0.333333 -0.083333      15 t-inv F
  0.083333  0.000000 -0.333333      15 t-inv F
 -0.083333  0.000000  0.333333      15 t-inv F
  0.333333  0.000000 -0.083333      15 t-inv F
 -0.333333  0.000000  0.083333      15 t-inv F
 -0.083333  0.333333  0.000000      15 t-inv F
  0.083333 -0.333333  0.000000      15 t-inv F
  0.000000 -0.083333  0.333333      15 t-inv F
  0.000000  0.083333 -0.333333      15 t-inv F
  0.083333  0.083333  0.416667      15 t-inv F
 -0.083333 -0.083333 -0.416667      15 t-inv F
 -0.333333 -0.416667 -0.333333      15 t-inv F
  0.333333  0.416667  0.333333      15 t-inv F
 -0.416667 -0.083333 -0.083333      15 t-inv F
  0.416667  0.083333  0.083333      15 t-inv F
 -0.333333 -0.333333 -0.416667      15 t-inv F
  0.333333  0.333333  0.416667      15 t-inv F
 -0.083333 -0.416667 -0.083333      15 t-inv F
  0.083333  0.416667  0.083333      15 t-inv F
 -0.416667 -0.333333 -0.333333      15 t-inv F
  0.416667  0.333333  0.333333      15 t-inv F
  0.250000 -0.083333  0.000000      16 t-inv F
  0.000000 -0.250000  0.083333      16 t-inv F
  0.000000  0.250000 -0.083333      16 t-inv F
  0.083333  0.000000 -0.250000      16 t-inv F
 -0.083333  0.000000  0.250000      16 t-inv F
  0.250000  0.000000 -0.083333      16 t-inv F
 -0.250000  0.000000  0.083333      16 t-inv F
 -0.083333  0.250000  0.000000      16 t-inv F
  0.083333 -0.250000  0.000000      16 t-inv F
  0.000000 -0.083333  0.250000      16 t-inv F
  0.000000  0.083333 -0.250000      16 t-inv F
  0.083333  0.083333  0.333333      16 t-inv F
 -0.083333 -0.083333 -0.333333      16 t-inv F
 -0.250000 -0.333333 -0.250000      16 t-inv F
  0.250000  0.333333  0.250000      16 t-inv F
 -0.333333 -0.083333 -0.083333      16 t-inv F
  0.333333  0.083333  0.083333      16 t-inv F
 -0.250000 -0.250000 -0.333333      16 t-inv F
  0.250000  0.250000  0.333333      16 t-inv F
 -0.083333 -0.333333 -0.083333      16 t-inv F
  0.083333  0.333333  0.083333      16 t-inv F
 -0.333333 -0.250000 -0.250000      16 t-inv F
  0.333333  0.250000  0.250000      16 t-inv F
  0.166667 -0.083333  0.000000      17 t-inv F
  0.000000 -0.166667  0.083333      17 t-inv F
  0.000000  0.166667 -0.083333      17 t-inv F
  0.083333  0.000000 -0.166667      17 t-inv F
 -0.083333  0.000000  0.166667      17 t-inv F
  0.166667  0.000000 -0.083333      17 t-inv F
 -0.166667  0.000000  0.083333      17 t-inv F
 -0.083333  0.166667  0.000000      17 t-inv F
  0.083333 -0.166667  0.000000      17 t-inv F
  0.000000 -0.083333  0.166667      17 t-inv F
  0.000000  0.083333 -0.166667      17 t-inv F
  0.083333  0.083333  0.250000      17 t-inv F
 -0.083333 -0.083333 -0.250000      17 t-inv F
 -0.166667 -0.250000 -0.166667      17 t-inv F
  0.166667  0.250000  0.166667      17 t-inv F
 -0.250000 -0.083333 -0.083333      17 t-inv F
  0.250000  0.083333  0.083333      17 t-inv F
 -0.166667 -0.166667 -0.250000      17 t-inv F
  0.166667  0.166667  0.250000      17 t-inv F
 -0.083333 -0.250000 -0.083333      17 t-inv F
  0.083333  0.250000  0.083333      17 t-inv F
 -0.250000 -0.166667 -0.166667      17 t-inv F
  0.250000  0.166667  0.166667      17 t-inv F
  0.083333 -0.083333  0.000000      18 t-inv F
  0.000000 -0.083333  0.083333      18 t-inv F
  0.000000  0.083333 -0.083333      18 t-inv F
  0.083333  0.000000 -0.083333      18 t-inv F
 -0.083333  0.000000  0.083333      18 t-inv F
  0.083333  0.083333  0.166667      18 t-inv F
 -0.083333 -0.083333 -0.166667      18 t-inv F
 -0.083333 -0.166667 -0.083333      18 t-inv F
  0.083333  0.166667  0.083333      18 t-inv F
 -0.166667 -0.083333 -0.083333      18 t-inv F
  0.166667  0.083333  0.083333      18 t-inv F
 -0.166667 -0.166667  0.000000      19 t-inv F
  0.000000  0.166667  0.166667      19 t-inv F
  0.000000 -0.166667 -0.166667      19 t-inv F
  0.166667  0.000000  0.166667      19 t-inv F
 -0.166667  0.000000 -0.166667      19 t-inv F
 -0.250000 -0.166667  0.000000      20 t-inv F
  0.000000  0.250000  0.166667      20 t-inv F
  0.000000 -0.250000 -0.166667      20 t-inv F
  0.166667  0.000000  0.250000      20 t-inv F
 -0.166667  0.000000 -0.250000      20 t-inv F
 -0.250000  0.000000 -0.166667      20 t-inv F
  0.250000  0.000000  0.166667      20 t-inv F
 -0.166667 -0.250000  0.000000      20 t-inv F
  0.166667  0.250000  0.000000      20 t-inv F
  0.000000 -0.166667 -0.250000      20 t-inv F
  0.000000  0.166667  0.250000      20 t-inv F
  0.166667  0.166667 -0.083333      20 t-inv F
 -0.166667 -0.166667  0.083333      20 t-inv F
  0.250000  0.083333  0.250000      20 t-inv F
 -0.250000 -0.083333 -0.250000      20 t-inv F
  0.083333 -0.166667 -0.166667      20 t-inv F
 -0.083333  0.166667  0.166667      20 t-inv F
  0.250000  0.250000  0.083333      20 t-inv F
 -0.250000 -0.250000 -0.083333      20 t-inv F
 -0.166667  0.083333 -0.166667      20 t-inv F
  0.166667 -0.083333  0.166667      20 t-inv F
  0.083333  0.250000  0.250000      20 t-inv F
 -0.083333 -0.250000 -0.250000      20 t-inv F
 -0.333333 -0.166667  0.000000      21 t-inv F
  0.000000  0.333333  0.166667      21 t-inv F
  0.000000 -0.333333 -0.166667      21 t-inv F
  0.166667  0.000000  0.333333      21 t-inv F
 -0.166667  0.000000 -0.333333      21 t-inv F
 -0.333333  0.000000 -0.166667      21 t-inv F
  0.333333  0.000000  0.166667      21 t-inv F
 -0.166667 -0.333333  0.000000      21 t-inv F
  0.166667  0.333333  0.000000      21 t-inv F
  0.000000 -0.166667 -0.333333      21 t-inv F
  0.000000  0.166667  0.333333      21 t-inv F
  0.166667  0.166667 -0.166667      21 t-inv F
 -0.166667 -0.166667  0.166667      21 t-inv F
  0.333333  0.166667  0.333333      21 t-inv F
 -0.333333 -0.166667 -0.333333      21 t-inv F
  0.166667 -0.166667 -0.166667      21 t-inv F
 -0.166667  0.166667  0.166667      21 t-inv F
  0.333333  0.333333  0.166667      21 t-inv F
 -0.333333 -0.333333 -0.166667      21 t-inv F
 -0.166667  0.166667 -0.166667      21 t-inv F
  0.166667 -0.166667  0.166667      21 t-inv F
  0.166667  0.333333  0.333333      21 t-inv F
 -0.166667 -0.333333 -0.333333      21 t-inv F
 -0.416667 -0.166667  0.000000      22 t-inv F
  0.000000  0.416667  0.166667      22 t-inv F
  0.000000 -0.416667 -0.166667      22 t-inv F
  0.166667  0.000000  0.416667      22 t-inv F
 -0.166667  0.000000 -0.416667      22 t-inv F
 -0.416667  0.000000 -0.166667      22 t-inv F
  0.416667  0.000000  0.166667      22 t-inv F
 -0.166667 -0.416667  0.000000      22 t-inv F
  0.166667  0.416667  0.000000      22 t-inv F
  0.000000 -0.166667 -0.416667      22 t-inv F
  0.000000  0.166667  0.416667      22 t-inv F
  0.166667  0.166667 -0.250000      22 t-inv F
 -0.166667 -0.166667  0.250000      22 t-inv F
  0.416667  0.250000  0.416667      22 t-inv F
 -0.416667 -0.250000 -0.416667      22 t-inv F
  0.250000 -0.166667 -0.166667      22 t-inv F
 -0.250000  0.166667  0.166667      22 t-inv F
  0.416667  0.416667  0.250000      22 t-inv F
 -0.416667 -0.416667 -0.250000      22 t-inv F
 -0.166667  0.250000 -0.166667      22 t-inv F
  0.166667 -0.250000  0.166667      22 t-inv F
  0.250000  0.416667  0.416667      22 t-inv F
 -0.250000 -0.416667 -0.416667      22 t-inv F
 -0.500000 -0.166667  0.000000      23 t-inv F
  0.000000  0.500000  0.166667      23 t-inv F
  0.000000 -0.500000 -0.166667      23 t-inv F
  0.166667  0.000000  0.500000      23 t-inv F
 -0.166667  0.000000 -0.500000      23 t-inv F
 -0.500000  0.000000 -0.166667      23 t-inv F
  0.500000  0.000000  0.166667      23 t-inv F
 -0.166667 -0.500000  0.000000      23 t-inv F
  0.166667  0.500000  0.000000      23 t-inv F
  0.000000 -0.166667 -0.500000      23 t-inv F
  0.000000  0.166667  0.500000      23 t-inv F
  0.166667  0.166667 -0.333333      23 t-inv F
 -0.166667 -0.166667  0.333333      23 t-inv F
  0.500000  0.333333  0.500000      23 t-inv F
 -0.500000 -0.333333 -0.500000      23 t-inv F
  0.333333 -0.166667 -0.166667      23 t-inv F
 -0.333333  0.166667  0.166667      23 t-inv F
  0.500000  0.500000  0.333333      23 t-inv F
 -0.500000 -0.500000 -0.333333      23 t-inv F
 -0.166667  0.333333 -0.166667      23 t-inv F
  0.166667 -0.333333  0.166667      23 t-inv F
  0.333333  0.500000  0.500000      23 t-inv F
 -0.333333 -0.500000 -0.500000      23 t-inv F
  0.416667 -0.166667  0.000000      24 t-inv F
  0.000000 -0.416667  0.166667      24 t-inv F
  0.000000  0.416667 -0.166667      24 t-inv F
  0.166667  0.000000 -0.416667      24 t-inv F
 -0.166667  0.000000  0.416667      24 t-inv F
  0.416667  0.000000 -0.166667      24 t-inv F
 -0.416667  0.000000  0.166667      24 t-inv F
 -0.166667  0.416667  0.000000      24 t-inv F
  0.166667 -0.416667  0.000000      24 t-inv F
  0.000000 -0.166667  0.416667      24 t-inv F
  0.000000  0.166667 -0.416667      24 t-inv F
  0.166667  0.166667  0.583333      24 t-inv F
 -0.166667 -0.166667 -0.583333      24 t-inv F
 -0.416667 -0.583333 -0.416667      24 t-inv F
  0.416667  0.583333  0.416667      24 t-inv F
 -0.583333 -0.166667 -0.166667      24 t-inv F
  0.583333  0.166667  0.166667      24 t-inv F
 -0.416667 -0.416667 -0.583333      24 t-inv F
  0.416667  0.416667  0.583333      24 t-inv F
 -0.166667 -0.583333 -0.166667      24 t-inv F
  0.166667  0.583333  0.166667      24 t-inv F
 -0.583333 -0.416667 -0.416667      24 t-inv F
  0.583333  0.416667  0.416667      24 t-inv F
  0.333333 -0.166667  0.000000      25 t-inv F
  0.000000 -0.333333  0.166667      25 t-inv F
  0.000000  0.333333 -0.166667      25 t-inv F
  0.166667  0.000000 -0.333333      25 t-inv F
 -0.166667  0.000000  0.333333      25 t-inv F
  0.333333  0.000000 -0.166667      25 t-inv F
 -0.333333  0.000000  0.166667      25 t-inv F
 -0.166667  0.333333  0.000000      25 t-inv F
  0.166667 -0.333333  0.000000      25 t-inv F
  0.000000 -0.166667  0.333333      25 t-inv F
  0.000000  0.166667 -0.333333      25 t-inv F
  0.166667  0.166667  0.500000      25 t-inv F
 -0.166667 -0.166667 -0.500000      25 t-inv F
 -0.333333 -0.500000 -0.333333      25 t-inv F
  0.333333  0.500000  0.333333      25 t-inv F
 -0.500000 -0.166667 -0.166667      25 t-inv F
  0.500000  0.166667  0.166667      25 t-inv F
 -0.333333 -0.333333 -0.500000      25 t-inv F
  0.333333  0.333333  0.500000      25 t-inv F
 -0.166667 -0.500000 -0.166667      25 t-inv F
  0.166667  0.500000  0.166667      25 t-inv F
 -0.500000 -0.333333 -0.333333      25 t-inv F
  0.500000  0.333333  0.333333      25 t-inv F
  0.250000 -0.166667  0.000000      26 t-inv F
  0.000000 -0.250000  0.166667      26 t-inv F
  0.000000  0.250000 -0.166667      26 t-inv F
  0.166667  0.000000 -0.250000      26 t-inv F
 -0.166667  0.000000  0.250000      26 t-inv F
  0.250000  0.000000 -0.166667      26 t-inv F
 -0.250000  0.000000  0.166667      26 t-inv F
 -0.166667  0.250000  0.000000      26 t-inv F
  0.166667 -0.250000  0.000000      26 t-inv F
  0.000000 -0.166667  0.250000      26 t-inv F
  0.000000  0.166667 -0.250000      26 t-inv F
  0.166667  0.166667  0.416667      26 t-inv F
 -0.166667 -0.166667 -0.416667      26 t-inv F
 -0.250000 -0.416667 -0.250000      26 t-inv F
  0.250000  0.416667  0.250000      26 t-inv F
 -0.416667 -0.166667 -0.166667      26 t-inv F
  0.416667  0.166667  0.166667      26 t-inv F
 -0.250000 -0.250000 -0.416667      26 t-inv F
  0.250000  0.250000  0.416667      26 t-inv F
 -0.166667 -0.416667 -0.166667      26 t-inv F
  0.166667  0.416667  0.166667      26 t-inv F
 -0.416667 -0.250000 -0.250000      26 t-inv F
  0.416667  0.250000  0.250000      26 t-inv F
  0.166667 -0.166667  0.000000      27 t-inv F
  0.000000 -0.166667  0.166667      27 t-inv F
  0.000000  0.166667 -0.166667      27 t-inv F
  0.166667  0.000000 -0.166667      27 t-inv F
 -0.166667  0.000000  0.166667      27 t-inv F
  0.166667  0.166667  0.333333      27 t-inv F
 -0.166667 -0.166667 -0.333333      27 t-inv F
 -0.166667 -0.333333 -0.166667      27 t-inv F
  0.166667  0.333333  0.166667      27 t-inv F
 -0.333333 -0.166667 -0.166667      27 t-inv F
  0.333333  0.166667  0.166667      27 t-inv F
 -0.250000 -0.250000  0.000000      28 t-inv F
  0.000000  0.250000  0.250000      28 t-inv F
  0.000000 -0.250000 -0.250000      28 t-inv F
  0.250000  0.000000  0.250000      28 t-inv F
 -0.250000  0.000000 -0.250000      28 t-inv F
 -0.333333 -0.250000  0.000000      29 t-inv F
  0.000000  0.333333  0.250000      29 t-inv F
  0.000000 -0.333333 -0.250000      29 t-inv F
  0.250000  0.000000  0.333333      29 t-inv F
 -0.250000  0.000000 -0.333333      29 t-inv F
 -0.333333  0.000000 -0.250000      29 t-inv F
  0.333333  0.000000  0.250000      29 t-inv F
 -0.250000 -0.333333  0.000000      29 t-inv F
  0.250000  0.333333  0.000000      29 t-inv F
  0.000000 -0.250000 -0.333333      29 t-inv F
  0.000000  0.250000  0.333333      29 t-inv F
  0.250000  0.250000 -0.083333      29 t-inv F
 -0.250000 -0.250000  0.083333      29 t-inv F
  0.333333  0.083333  0.333333      29 t-inv F
 -0.333333 -0.083333 -0.333333      29 t-inv F
  0.083333 -0.250000 -0.250000      29 t-inv F
 -0.083333  0.250000  0.250000      29 t-inv F
  0.333333  0.333333  0.083333      29 t-inv F
 -0.333333 -0.333333 -0.083333      29 t-inv F
 -0.250000  0.083333 -0.250000      29 t-inv F
  0.250000 -0.083333  0.250000      29 t-inv F
  0.083333  0.333333  0.333333      29 t-inv F
 -0.083333 -0.333333 -0.333333      29 t-inv F
 -0.416667 -0.250000  0.000000      30 t-inv F
  0.000000  0.416667  0.250000      30 t-inv F
  0.000000 -0.416667 -0.250000      30 t-inv F
  0.250000  0.000000  0.416667      30 t-inv F
 -0.250000  0.000000 -0.416667      30 t-inv F
 -0.416667  0.000000 -0.250000      30 t-inv F
  0.416667  0.000000  0.250000      30 t-inv F
 -0.250000 -0.416667  0.000000      30 t-inv F
  0.250000  0.416667  0.000000      30 t-inv F
  0.000000 -0.250000 -0.416667      30 t-inv F
  0.000000  0.250000  0.416667      30 t-inv F
  0.250000  0.250000 -0.166667      30 t-inv F
 -0.250000 -0.250000  0.166667      30 t-inv F
  0.416667  0.166667  0.416667      30 t-inv F
 -0.416667 -0.166667 -0.416667      30 t-inv F
  0.166667 -0.250000 -0.250000      30 t-inv F
 -0.166667  0.250000  0.250000      30 t-inv F
  0.416667  0.416667  0.166667      30 t-inv F
 -0.416667 -0.416667 -0.166667      30 t-inv F
 -0.250000  0.166667 -0.250000      30 t-inv F
  0.250000 -0.166667  0.250000      30 t-inv F
  0.166667  0.416667  0.416667      30 t-inv F
 -0.166667 -0.416667 -0.416667      30 t-inv F
 -0.500000 -0.250000  0.000000      31 t-inv F
  0.000000  0.500000  0.250000      31 t-inv F
  0.000000 -0.500000 -0.250000      31 t-inv F
  0.250000  0.000000  0.500000      31 t-inv F
 -0.250000  0.000000 -0.500000      31 t-inv F
 -0.500000  0.000000 -0.250000      31 t-inv F
  0.500000  0.000000  0.250000      31 t-inv F
 -0.250000 -0.500000  0.000000      31 t-inv F
  0.250000  0.500000  0.000000      31 t-inv F
  0.000000 -0.250000 -0.500000      31 t-inv F
  0.000000  0.250000  0.500000      31 t-inv F
  0.250000  0.250000 -0.250000      31 t-inv F
 -0.250000 -0.250000  0.250000      31 t-inv F
  0.500000  0.250000  0.500000      31 t-inv F
 -0.500000 -0.250000 -0.500000      31 t-inv F
  0.250000 -0.250000 -0.250000      31 t-inv F
 -0.250000  0.250000  0.250000      31 t-inv F
  0.500000  0.500000  0.250000      31 t-inv F
 -0.500000 -0.500000 -0.250000      31 t-inv F
 -0.250000  0.250000 -0.250000      31 t-inv F
  0.250000 -0.250000  0.250000      31 t-inv F
  0.250000  0.500000  0.500000      31 t-inv F
 -0.250000 -0.500000 -0.500000      31 t-inv F
  0.416667 -0.250000  0.000000      32 t-inv F
  0.000000 -0.416667  0.250000      32 t-inv F
  0.000000  0.416667 -0.250000      32 t-inv F
  0.250000  0.000000 -0.416667      32 t-inv F
 -0.250000  0.000000  0.416667      32 t-inv F
  0.416667  0.000000 -0.250000      32 t-inv F
 -0.416667  0.000000  0.250000      32 t-inv F
 -0.250000  0.416667  0.000000      32 t-inv F
  0.250000 -0.416667  0.000000      32 t-inv F
  0.000000 -0.250000  0.416667      32 t-inv F
  0.000000  0.250000 -0.416667      32 t-inv F
  0.250000  0.250000  0.666667      32 t-inv F
 -0.250000 -0.250000 -0.666667      32 t-inv F
 -0.416667 -0.666667 -0.416667      32 t-inv F
  0.416667  0.666667  0.416667      32 t-inv F
 -0.666667 -0.250000 -0.250000      32 t-inv F
  0.666667  0.250000  0.250000      32 t-inv F
 -0.416667 -0.416667 -0.666667      32 t-inv F
  0.416667  0.416667  0.666667      32 t-inv F
 -0.250000 -0.666667 -0.250000      32 t-inv F
  0.250000  0.666667  0.250000      32 t-inv F
 -0.666667 -0.416667 -0.416667      32 t-inv F
  0.666667  0.416667  0.416667      32 t-inv F
  0.333333 -0.250000  0.000000      33 t-inv F
  0.000000 -0.333333  0.250000      33 t-inv F
  0.000000  0.333333 -0.250000      33 t-inv F
  0.250000  0.000000 -0.333333      33 t-inv F
 -0.250000  0.000000  0.333333      33 t-inv F
  0.333333  0.000000 -0.250000      33 t-inv F
 -0.333333  0.000000  0.250000      33 t-inv F
 -0.250000  0.333333  0.000000      33 t-inv F
  0.250000 -0.333333  0.000000      33 t-inv F
  0.000000 -0.250000  0.333333      33 t-inv F
  0.000000  0.250000 -0.333333      33 t-inv F
  0.250000  0.250000  0.583333      33 t-inv F
 -0.250000 -0.250000 -0.583333      33 t-inv F
 -0.333333 -0.583333 -0.333333      33 t-inv F
  0.333333  0.583333  0.333333      33 t-inv F
 -0.583333 -0.250000 -0.250000      33 t-inv F
  0.583333  0.250000  0.250000      33 t-inv F
 -0.333333 -0.333333 -0.583333      33 t-inv F
  0.333333  0.333333  0.583333      33 t-inv F
 -0.250000 -0.583333 -0.250000      33 t-inv F
  0.250000  0.583333  0.250000      33 t-inv F
 -0.583333 -0.333333 -0.333333      33 t-inv F
  0.583333  0.333333  0.333333      33 t-inv F
  0.250000 -0.250000  0.000000      34 t-inv F
  0.000000 -0.250000  0.250000      34 t-inv F
  0.000000  0.250000 -0.250000      34 t-inv F
  0.250000  0.000000 -0.250000      34 t-inv F
 -0.250000  0.000000  0.250000      34 t-inv F
  0.250000  0.250000  0.500000      34 t-inv F
 -0.250000 -0.250000 -0.500000      34 t-inv F
 -0.250000 -0.500000 -0.250000      34 t-inv F
  0.250000  0.500000  0.250000      34 t-inv F
 -0.500000 -0.250000 -0.250000      34 t-inv F
  0.500000  0.250000  0.250000      34 t-inv F
 -0.333333 -0.333333  0.000000      35 t-inv F
  0.000000  0.333333  0.333333      35 t-inv F
  0.000000 -0.333333 -0.333333      35 t-inv F
  0.333333  0.000000  0.333333      35 t-inv F
 -0.333333  0.000000 -0.333333      35 t-inv F
 -0.416667 -0.333333  0.000000      36 t-inv F
  0.000000  0.416667  0.333333      36 t-inv F
  0.000000 -0.416667 -0.333333      36 t-inv F
  0.333333  0.000000  0.416667      36 t-inv F
 -0.333333  0.000000 -0.416667      36 t-inv F
 -0.416667  0.000000 -0.333333      36 t-inv F
  0.416667  0.000000  0.333333      36 t-inv F
 -0.333333 -0.416667  0.000000      36 t-inv F
  0.333333  0.416667  0.000000      36 t-inv F
  0.000000 -0.333333 -0.416667      36 t-inv F
  0.000000  0.333333  0.416667      36 t-inv F
  0.333333  0.333333 -0.083333      36 t-inv F
 -0.333333 -0.333333  0.083333      36 t-inv F
  0.416667  0.083333  0.416667      36 t-inv F
 -0.416667 -0.083333 -0.416667      36 t-inv F
  0.083333 -0.333333 -0.333333      36 t-inv F
 -0.083333  0.333333  0.333333      36 t-inv F
  0.416667  0.416667  0.083333      36 t-inv F
 -0.416667 -0.416667 -0.083333      36 t-inv F
 -0.333333  0.083333 -0.333333      36 t-inv F
  0.333333 -0.083333  0.333333      36 t-inv F
  0.083333  0.416667  0.416667      36 t-inv F
 -0.083333 -0.416667 -0.416667      36 t-inv F
 -0.500000 -0.333333  0.000000      37 t-inv F
  0.000000  0.500000  0.333333      37 t-inv F
  0.000000 -0.500000 -0.333333      37 t-inv F
  0.333333  0.000000  0.500000      37 t-inv F
 -0.333333  0.000000 -0.500000      37 t-inv F
 -0.500000  0.000000 -0.333333      37 t-inv F
  0.500000  0.000000  0.333333      37 t-inv F
 -0.333333 -0.500000  0.000000      37 t-inv F
  0.333333  0.500000  0.000000      37 t-inv F
  0.000000 -0.333333 -0.500000      37 t-inv F
  0.000000  0.333333  0.500000      37 t-inv F
  0.333333  0.333333 -0.166667      37 t-inv F
 -0.333333 -0.333333  0.166667      37 t-inv F
  0.500000  0.166667  0.500000      37 t-inv F
 -0.500000 -0.166667 -0.500000      37 t-inv F
  0.166667 -0.333333 -0.333333      37 t-inv F
 -0.166667  0.333333  0.333333      37 t-inv F
  0.500000  0.500000  0.166667      37 t-inv F
 -0.500000 -0.500000 -0.166667      37 t-inv F
 -0.333333  0.166667 -0.333333      37 t-inv F
  0.333333 -0.166667  0.333333      37 t-inv F
  0.166667  0.500000  0.500000      37 t-inv F
 -0.166667 -0.500000 -0.500000      37 t-inv F
  0.416667 -0.333333  0.000000      38 t-inv F
  0.000000 -0.416667  0.333333      38 t-inv F
  0.000000  0.416667 -0.333333      38 t-inv F
  0.333333  0.000000 -0.416667      38 t-inv F
 -0.333333  0.000000  0.416667      38 t-inv F
  0.416667  0.000000 -0.333333      38 t-inv F
 -0.416667  0.000000  0.333333      38 t-inv F
 -0.333333  0.416667  0.000000      38 t-inv F
  0.333333 -0.416667  0.000000      38 t-inv F
  0.000000 -0.333333  0.416667      38 t-inv F
  0.000000  0.333333 -0.416667      38 t-inv F
  0.333333  0.333333  0.750000      38 t-inv F
 -0.333333 -0.333333 -0.750000      38 t-inv F
 -0.416667 -0.750000 -0.416667      38 t-inv F
  0.416667  0.750000  0.416667      38 t-inv F
 -0.750000 -0.333333 -0.333333      38 t-inv F
  0.750000  0.333333  0.333333      38 t-inv F
 -0.416667 -0.416667 -0.750000      38 t-inv F
  0.416667  0.416667  0.750000      38 t-inv F
 -0.333333 -0.750000 -0.333333      38 t-inv F
  0.333333  0.750000  0.333333      38 t-inv F
 -0.750000 -0.416667 -0.416667      38 t-inv F
  0.750000  0.416667  0.416667      38 t-inv F
  0.333333 -0.333333  0.000000      39 t-inv F
  0.000000 -0.333333  0.333333      39 t-inv F
  0.000000  0.333333 -0.333333      39 t-inv F
  0.333333  0.000000 -0.333333      39 t-inv F
 -0.333333  0.000000  0.333333      39 t-inv F
  0.333333  0.333333  0.666667      39 t-inv F
 -0.333333 -0.333333 -0.666667      39 t-inv F
 -0.333333 -0.666667 -0.333333      39 t-inv F
  0.333333  0.666667  0.333333      39 t-inv F
 -0.666667 -0.333333 -0.333333      39 t-inv F
  0.666667  0.333333  0.333333      39 t-inv F
 -0.416667 -0.416667  0.000000      40 t-inv F
  0.000000  0.416667  0.416667      40 t-inv F
  0.000000 -0.416667 -0.416667      40 t-inv F
  0.416667  0.000000  0.416667      40 t-inv F
 -0.416667  0.000000 -0.416667      40 t-inv F
 -0.500000 -0.416667  0.000000      41 t-inv F
  0.000000  0.500000  0.416667      41 t-inv F
  0.000000 -0.500000 -0.416667      41 t-inv F
  0.416667  0.000000  0.500000      41 t-inv F
 -0.416667  0.000000 -0.500000      41 t-inv F
 -0.500000  0.000000 -0.416667      41 t-inv F
  0.500000  0.000000  0.416667      41 t-inv F
 -0.416667 -0.500000  0.000000      41 t-inv F
  0.416667  0.500000  0.000000      41 t-inv F
  0.000000 -0.416667 -0.500000      41 t-inv F
  0.000000  0.416667  0.500000      41 t-inv F
  0.416667  0.416667 -0.083333      41 t-inv F
 -0.416667 -0.416667  0.083333      41 t-inv F
  0.500000  0.083333  0.500000      41 t-inv F
 -0.500000 -0.083333 -0.500000      41 t-inv F
  0.083333 -0.416667 -0.416667      41 t-inv F
 -0.083333  0.416667  0.416667      41 t-inv F
  0.500000  0.500000  0.083333      41 t-inv F
 -0.500000 -0.500000 -0.083333      41 t-inv F
 -0.416667  0.083333 -0.416667      41 t-inv F
  0.416667 -0.083333  0.416667      41 t-inv F
  0.083333  0.500000  0.500000      41 t-inv F
 -0.083333 -0.500000 -0.500000      41 t-inv F
  0.416667 -0.416667  0.000000      42 t-inv F
  0.000000 -0.416667  0.416667      42 t-inv F
  0.000000  0.416667 -0.416667      42 t-inv F
  0.416667  0.000000 -0.416667      42 t-inv F
 -0.416667  0.000000  0.416667      42 t-inv F
  0.416667  0.416667  0.833333      42 t-inv F
 -0.416667 -0.416667 -0.833333      42 t-inv F
 -0.416667 -0.833333 -0.416667      42 t-inv F
  0.416667  0.833333  0.416667      42 t-inv F
 -0.833333 -0.416667 -0.416667      42 t-inv F
  0.833333  0.416667  0.416667      42 t-inv F
  0.000000  0.500000  0.500000      43 t-inv F
  0.500000  0.000000  0.500000      43 t-inv F
 -0.250000 -0.166667 -0.083333      44 t-inv F
  0.083333  0.250000  0.166667      44 t-inv F
 -0.083333 -0.250000 -0.166667      44 t-inv F
  0.166667  0.083333  0.250000      44 t-inv F
 -0.166667 -0.083333 -0.250000      44 t-inv F
 -0.250000 -0.083333 -0.166667      44 t-inv F
  0.250000  0.083333  0.166667      44 t-inv F
 -0.166667 -0.250000 -0.083333      44 t-inv F
  0.166667  0.250000  0.083333      44 t-inv F
 -0.083333 -0.166667 -0.250000      44 t-inv F
  0.083333  0.166667  0.250000      44 t-inv F
  0.166667  0.083333 -0.083333      44 t-inv F
 -0.166667 -0.083333  0.083333      44 t-inv F
  0.083333 -0.166667 -0.083333      44 t-inv F
 -0.083333  0.166667  0.083333      44 t-inv F
  0.083333  0.166667 -0.083333      44 t-inv F
 -0.083333 -0.166667  0.083333      44 t-inv F
  0.083333 -0.083333 -0.166667      44 t-inv F
 -0.083333  0.083333  0.166667      44 t-inv F
 -0.083333  0.083333 -0.166667      44 t-inv F
  0.083333 -0.083333  0.166667      44 t-inv F
 -0.166667  0.083333 -0.083333      44 t-inv F
  0.166667 -0.083333  0.083333      44 t-inv F
 -0.333333 -0.166667 -0.083333      45 t-inv F
  0.083333  0.333333  0.166667      45 t-inv F
 -0.083333 -0.333333 -0.166667      45 t-inv F
  0.166667  0.083333  0.333333      45 t-inv F
 -0.166667 -0.083333 -0.333333      45 t-inv F
 -0.333333 -0.083333 -0.166667      45 t-inv F
  0.333333  0.083333  0.166667      45 t-inv F
 -0.166667 -0.333333 -0.083333      45 t-inv F
  0.166667  0.333333  0.083333      45 t-inv F
 -0.083333 -0.166667 -0.333333      45 t-inv F
  0.083333  0.166667  0.333333      45 t-inv F
  0.166667  0.083333 -0.166667      45 t-inv F
 -0.166667 -0.083333  0.166667      45 t-inv F
  0.333333  0.166667  0.250000      45 t-inv F
 -0.333333 -0.166667 -0.250000      45 t-inv F
  0.083333 -0.250000 -0.083333      45 t-inv F
 -0.083333  0.250000  0.083333      45 t-inv F
  0.083333  0.250000 -0.083333      45 t-inv F
 -0.083333 -0.250000  0.083333      45 t-inv F
  0.166667 -0.083333 -0.166667      45 t-inv F
 -0.166667  0.083333  0.166667      45 t-inv F
 -0.250000 -0.166667 -0.333333      45 t-inv F
  0.250000  0.166667  0.333333      45 t-inv F
  0.250000  0.333333  0.166667      45 t-inv F
 -0.250000 -0.333333 -0.166667      45 t-inv F
 -0.083333  0.083333 -0.250000      45 t-inv F
  0.083333 -0.083333  0.250000      45 t-inv F
 -0.166667  0.166667  0.083333      45 t-inv F
  0.166667 -0.166667 -0.083333      45 t-inv F
 -0.083333  0.083333  0.250000      45 t-inv F
  0.083333 -0.083333 -0.250000      45 t-inv F
 -0.166667  0.166667 -0.083333      45 t-inv F
  0.166667 -0.166667  0.083333      45 t-inv F
 -0.333333 -0.250000 -0.166667      45 t-inv F
  0.333333  0.250000  0.166667      45 t-inv F
  0.166667  0.250000  0.333333      45 t-inv F
 -0.166667 -0.250000 -0.333333      45 t-inv F
 -0.250000 -0.083333  0.083333      45 t-inv F
  0.250000  0.083333 -0.083333      45 t-inv F
  0.083333 -0.166667  0.166667      45 t-inv F
 -0.083333  0.166667 -0.166667      45 t-inv F
  0.250000 -0.083333  0.083333      45 t-inv F
 -0.250000  0.083333 -0.083333      45 t-inv F
 -0.083333 -0.166667  0.166667      45 t-inv F
  0.083333  0.166667 -0.166667      45 t-inv F
 -0.166667 -0.333333 -0.250000      45 t-inv F
  0.166667  0.333333  0.250000      45 t-inv F
 -0.416667 -0.166667 -0.083333      46 t-inv F
  0.083333  0.416667  0.166667      46 t-inv F
 -0.083333 -0.416667 -0.166667      46 t-inv F
  0.166667  0.083333  0.416667      46 t-inv F
 -0.166667 -0.083333 -0.416667      46 t-inv F
 -0.416667 -0.083333 -0.166667      46 t-inv F
  0.416667  0.083333  0.166667      46 t-inv F
 -0.166667 -0.416667 -0.083333      46 t-inv F
  0.166667  0.416667  0.083333      46 t-inv F
 -0.083333 -0.166667 -0.416667      46 t-inv F
  0.083333  0.166667  0.416667      46 t-inv F
  0.166667  0.083333 -0.250000      46 t-inv F
 -0.166667 -0.083333  0.250000      46 t-inv F
  0.416667  0.250000  0.333333      46 t-inv F
 -0.416667 -0.250000 -0.333333      46 t-inv F
  0.083333 -0.333333 -0.083333      46 t-inv F
 -0.083333  0.333333  0.083333      46 t-inv F
  0.083333  0.333333 -0.083333      46 t-inv F
 -0.083333 -0.333333  0.083333      46 t-inv F
  0.250000 -0.083333 -0.166667      46 t-inv F
 -0.250000  0.083333  0.166667      46 t-inv F
 -0.333333 -0.250000 -0.416667      46 t-inv F
  0.333333  0.250000  0.416667      46 t-inv F
  0.333333  0.416667  0.250000      46 t-inv F
 -0.333333 -0.416667 -0.250000      46 t-inv F
 -0.083333  0.083333 -0.333333      46 t-inv F
  0.083333 -0.083333  0.333333      46 t-inv F
 -0.250000  0.166667  0.083333      46 t-inv F
  0.250000 -0.166667 -0.083333      46 t-inv F
 -0.083333  0.083333  0.333333      46 t-inv F
  0.083333 -0.083333 -0.333333      46 t-inv F
 -0.166667  0.250000 -0.083333      46 t-inv F
  0.166667 -0.250000  0.083333      46 t-inv F
 -0.416667 -0.333333 -0.250000      46 t-inv F
  0.416667  0.333333  0.250000      46 t-inv F
  0.250000  0.333333  0.416667      46 t-inv F
 -0.250000 -0.333333 -0.416667      46 t-inv F
 -0.333333 -0.083333  0.083333      46 t-inv F
  0.333333  0.083333 -0.083333      46 t-inv F
  0.083333 -0.250000  0.166667      46 t-inv F
 -0.083333  0.250000 -0.166667      46 t-inv F
  0.333333 -0.083333  0.083333      46 t-inv F
 -0.333333  0.083333 -0.083333      46 t-inv F
 -0.083333 -0.166667  0.250000      46 t-inv F
  0.083333  0.166667 -0.250000      46 t-inv F
 -0.250000 -0.416667 -0.333333      46 t-inv F
  0.250000  0.416667  0.333333      46 t-inv F
 -0.500000 -0.166667 -0.083333      47 t-inv F
  0.083333  0.500000  0.166667      47 t-inv F
 -0.083333 -0.500000 -0.166667      47 t-inv F
  0.166667  0.083333  0.500000      47 t-inv F
 -0.166667 -0.083333 -0.500000      47 t-inv F
 -0.500000 -0.083333 -0.166667      47 t-inv F
  0.500000  0.083333  0.166667      47 t-inv F
 -0.166667 -0.500000 -0.083333      47 t-inv F
  0.166667  0.500000  0.083333      47 t-inv F
 -0.083333 -0.166667 -0.500000      47 t-inv F
  0.083333  0.166667  0.500000      47 t-inv F
  0.166667  0.083333 -0.333333      47 t-inv F
 -0.166667 -0.083333  0.333333      47 t-inv F
  0.500000  0.333333  0.416667      47 t-inv F
 -0.500000 -0.333333 -0.416667      47 t-inv F
  0.083333 -0.416667 -0.083333      47 t-inv F
 -0.083333  0.416667  0.083333      47 t-inv F
  0.083333  0.416667 -0.083333      47 t-inv F
 -0.083333 -0.416667  0.083333      47 t-inv F
  0.333333 -0.083333 -0.166667      47 t-inv F
 -0.333333  0.083333  0.166667      47 t-inv F
 -0.416667 -0.333333 -0.500000      47 t-inv F
  0.416667  0.333333  0.500000      47 t-inv F
  0.416667  0.500000  0.333333      47 t-inv F
 -0.416667 -0.500000 -0.333333      47 t-inv F
 -0.083333  0.083333 -0.416667      47 t-inv F
  0.083333 -0.083333  0.416667      47 t-inv F
 -0.333333  0.166667  0.083333      47 t-inv F
  0.333333 -0.166667 -0.083333      47 t-inv F
 -0.083333  0.083333  0.416667      47 t-inv F
  0.083333 -0.083333 -0.416667      47 t-inv F
 -0.166667  0.333333 -0.083333      47 t-inv F
  0.166667 -0.333333  0.083333      47 t-inv F
 -0.500000 -0.416667 -0.333333      47 t-inv F
  0.500000  0.416667  0.333333      47 t-inv F
  0.333333  0.416667  0.500000      47 t-inv F
 -0.333333 -0.416667 -0.500000      47 t-inv F
 -0.416667 -0.083333  0.083333      47 t-inv F
  0.416667  0.083333 -0.083333      47 t-inv F
  0.083333 -0.333333  0.166667      47 t-inv F
 -0.083333  0.333333 -0.166667      47 t-inv F
  0.416667 -0.083333  0.083333      47 t-inv F
 -0.416667  0.083333 -0.083333      47 t-inv F
 -0.083333 -0.166667  0.333333      47 t-inv F
  0.083333  0.166667 -0.333333      47 t-inv F
 -0.333333 -0.500000 -0.416667      47 t-inv F
  0.333333  0.500000  0.416667      47 t-inv F
  0.416667 -0.166667 -0.083333      48 t-inv F
  0.083333 -0.416667  0.166667      48 t-inv F
 -0.083333  0.416667 -0.166667      48 t-inv F
  0.166667  0.083333 -0.416667      48 t-inv F
 -0.166667 -0.083333  0.416667      48 t-inv F
  0.416667 -0.083333 -0.166667      48 t-inv F
 -0.416667  0.083333  0.166667      48 t-inv F
 -0.166667  0.416667 -0.083333      48 t-inv F
  0.166667 -0.416667  0.083333      48 t-inv F
 -0.083333 -0.166667  0.416667      48 t-inv F
  0.083333  0.166667 -0.416667      48 t-inv F
 -0.416667 -0.583333 -0.500000      48 t-inv F
  0.416667  0.583333  0.500000      48 t-inv F
  0.083333  0.500000 -0.083333      48 t-inv F
 -0.083333 -0.500000  0.083333      48 t-inv F
  0.500000  0.583333  0.416667      48 t-inv F
 -0.500000 -0.583333 -0.416667      48 t-inv F
 -0.083333  0.083333  0.500000      48 t-inv F
  0.083333 -0.083333 -0.500000      48 t-inv F
  0.416667  0.500000  0.583333      48 t-inv F
 -0.416667 -0.500000 -0.583333      48 t-inv F
  0.500000 -0.083333  0.083333      48 t-inv F
 -0.500000  0.083333 -0.083333      48 t-inv F
 -0.333333 -0.250000 -0.083333      49 t-inv F
  0.083333  0.333333  0.250000      49 t-inv F
 -0.083333 -0.333333 -0.250000      49 t-inv F
  0.250000  0.083333  0.333333      49 t-inv F
 -0.250000 -0.083333 -0.333333      49 t-inv F
 -0.333333 -0.083333 -0.250000      49 t-inv F
  0.333333  0.083333  0.250000      49 t-inv F
 -0.250000 -0.333333 -0.083333      49 t-inv F
  0.250000  0.333333  0.083333      49 t-inv F
 -0.083333 -0.250000 -0.333333      49 t-inv F
  0.083333  0.250000  0.333333      49 t-inv F
  0.250000  0.166667 -0.083333      49 t-inv F
 -0.250000 -0.166667  0.083333      49 t-inv F
  0.083333 -0.250000 -0.166667      49 t-inv F
 -0.083333  0.250000  0.166667      49 t-inv F
  0.166667  0.250000 -0.083333      49 t-inv F
 -0.166667 -0.250000  0.083333      49 t-inv F
  0.083333 -0.166667 -0.250000      49 t-inv F
 -0.083333  0.166667  0.250000      49 t-inv F
 -0.166667  0.083333 -0.250000      49 t-inv F
  0.166667 -0.083333  0.250000      49 t-inv F
 -0.250000  0.083333 -0.166667      49 t-inv F
  0.250000 -0.083333  0.166667      49 t-inv F
 -0.416667 -0.250000 -0.083333      50 t-inv F
  0.083333  0.416667  0.250000      50 t-inv F
 -0.083333 -0.416667 -0.250000      50 t-inv F
  0.250000  0.083333  0.416667      50 t-inv F
 -0.250000 -0.083333 -0.416667      50 t-inv F
 -0.416667 -0.083333 -0.250000      50 t-inv F
  0.416667  0.083333  0.250000      50 t-inv F
 -0.250000 -0.416667 -0.083333      50 t-inv F
  0.250000  0.416667  0.083333      50 t-inv F
 -0.083333 -0.250000 -0.416667      50 t-inv F
  0.083333  0.250000  0.416667      50 t-inv F
  0.250000  0.166667 -0.166667      50 t-inv F
 -0.250000 -0.166667  0.166667      50 t-inv F
  0.416667  0.166667  0.333333      50 t-inv F
 -0.416667 -0.166667 -0.333333      50 t-inv F
  0.083333 -0.333333 -0.166667      50 t-inv F
 -0.083333  0.333333  0.166667      50 t-inv F
  0.166667  0.333333 -0.083333      50 t-inv F
 -0.166667 -0.333333  0.083333      50 t-inv F
  0.166667 -0.166667 -0.250000      50 t-inv F
 -0.166667  0.166667  0.250000      50 t-inv F
 -0.333333 -0.166667 -0.416667      50 t-inv F
  0.333333  0.166667  0.416667      50 t-inv F
  0.333333  0.416667  0.166667      50 t-inv F
 -0.333333 -0.416667 -0.166667      50 t-inv F
 -0.166667  0.083333 -0.333333      50 t-inv F
  0.166667 -0.083333  0.333333      50 t-inv F
 -0.166667  0.250000  0.166667      50 t-inv F
[...]
      1      -3.2099      2.00000
      2       2.6300      2.00000
      3       4.4376      2.00000
      4       7.0884      2.00000
      5      20.5683      0.00000
      6      24.2941      0.00000
      7      33.4279      0.00000
      8      34.6732      0.00000
      9      41.0698      0.00000
     10      44.5540      0.00000
     11      48.4098      0.00000
     12      54.0568      0.00000

 k-point  38 :      -0.4167    0.3333    0.0000
  band No.  band energies     occupation 
      1      -1.1836      2.00000
      2       0.6933      2.00000
      3       2.8735      2.00000
      4       7.5256      2.00000
      5      21.0212      0.00000
      6      27.5546      0.00000
      7      32.4709      0.00000
      8      35.0084      0.00000
      9      38.2185      0.00000
     10      44.4894      0.00000
     11      45.2783      0.00000
     12      54.3244      0.00000

 k-point  39 :      -0.3333    0.3333    0.0000
  band No.  band energies     occupation 
      1      -1.9443      2.00000
      2       1.5161      2.00000
      3       2.2047      2.00000
      4       8.3499      2.00000
      5      21.7565      0.00000
      6      30.7607      0.00000
      7      31.4053      0.00000
      8      34.9254      0.00000
      9      35.1299      0.00000
     10      41.3434      0.00000
     11      45.8326      0.00000
     12      54.3858      0.00000

 k-point  40 :       0.4167    0.4167    0.0000
  band No.  band energies     occupation 
      1      -3.7735      2.00000
      2       2.8485      2.00000
      3       6.5480      2.00000
      4       6.5480      2.00000
      5      19.4622      0.00000
      6      21.0768      0.00000
      7      35.2557      0.00000
      8      35.2557      0.00000
      9      43.9297      0.00000
     10      44.0238      0.00000
     11      53.8137      0.00000
     12      53.8147      0.00000

 k-point  41 :       0.5000    0.4167    0.0000
  band No.  band energies     occupation 
      1      -2.1145      2.00000
      2       1.1844      2.00000
      3       5.4927      2.00000
      4       6.4475      2.00000
      5      20.0058      0.00000
      6      21.2706      0.00000
      7      35.6438      0.00000
      8      36.0199      0.00000
      9      43.0649      0.00000
     10      44.3300      0.00000
     11      50.7615      0.00000
     12      53.6140      0.00000

 k-point  42 :      -0.4167    0.4167    0.0000
  band No.  band energies     occupation 
      1      -0.2417      2.00000
      2      -0.0842      2.00000
      3       3.5534      2.00000
      4       6.7828      2.00000
      5      20.3894      0.00000
      6      23.8662      0.00000
      7      34.6492      0.00000
      8      36.0397      0.00000
      9      40.5515      0.00000
     10      44.7988      0.00000
     11      47.1989      0.00000
     12      54.7257      0.00000

 k-point  43 :       0.5000    0.5000    0.0000
  band No.  band energies     occupation 
      1      -0.6225      2.00000
      2      -0.6225      2.00000
      3       6.2282      2.00000
      4       6.2282      2.00000
      5      19.9342      0.00000
      6      19.9342      0.00000
      7      36.4626      0.00000
      8      36.4626      0.00000
      9      44.2416      0.00000
     10      44.2416      0.00000
     11      52.4407      0.00000
     12      52.4407      0.00000

 k-point  44 :       0.2500    0.1667    0.0833
  band No.  band energies     occupation 
      1      -9.8188      2.00000
      2       9.6526      2.00000
      3      10.1106      2.00000
      4      12.9417      2.00000
      5      21.5783      0.00000
      6      25.5164      0.00000
      7      25.7029      0.00000
      8      31.4935      0.00000
      9      39.1941      0.00000
     10      39.9886      0.00000
     11      43.5390      0.00000
     12      49.5599      0.00000

 k-point  45 :       0.3333    0.1667    0.0833
  band No.  band energies     occupation 
      1      -8.6650      2.00000
      2       6.6626      2.00000
      3       9.1554      2.00000
      4      12.0389      2.00000
      5      22.6642      0.00000
      6      26.0677      0.00000
      7      27.3310      0.00000
      8      30.8771      0.00000
      9      39.0105      0.00000
     10      40.4166      0.00000
     11      44.2208      0.00000
     12      49.0127      0.00000

 k-point  46 :       0.4167    0.1667    0.0833
  band No.  band energies     occupation 
      1      -7.0663      2.00000
      2       3.4084      2.00000
      3       8.7222      2.00000
      4      10.9816      2.00000
      5      23.5012      0.00000
      6      25.9728      0.00000
      7      28.6369      0.00000
      8      31.5676      0.00000
      9      39.2004      0.00000
     10      40.8879      0.00000
     11      45.3573      0.00000
     12      48.4146      0.00000

 k-point  47 :       0.5000    0.1667    0.0833
  band No.  band energies     occupation 
      1      -5.0537      2.00000
      2       0.3319      2.00000
      3       8.6323      2.00000
      4      10.0907      2.00000
      5      23.7114      0.00000
      6      25.8249      0.00000
      7      29.5177      0.00000
      8      32.8496      0.00000
      9      38.7949      0.00000
     10      42.6668      0.00000
     11      45.9240      0.00000
     12      47.6385      0.00000

 k-point  48 :      -0.4167    0.1667    0.0833
  band No.  band energies     occupation 
      1      -3.1108      2.00000
      2      -1.9755      2.00000
      3       8.6992      2.00000
      4       9.6845      2.00000
      5      23.7095      0.00000
      6      25.7627      0.00000
      7      29.8303      0.00000
      8      33.5765      0.00000
      9      38.4186      0.00000
     10      45.0805      0.00000
     11      45.2571      0.00000
     12      46.3454      0.00000

 k-point  49 :       0.3333    0.2500    0.0833
  band No.  band energies     occupation 
      1      -8.2813      2.00000
      2       7.6477      2.00000
      3       8.1785      2.00000
      4      10.5356      2.00000
      5      21.1160      0.00000
      6      26.8232      0.00000
      7      28.8249      0.00000
      8      29.1500      0.00000
      9      41.1609      0.00000
     10      41.4461      0.00000
     11      46.0154      0.00000
     12      52.3622      0.00000

 k-point  50 :       0.4167    0.2500    0.0833
  band No.  band energies     occupation 
      1      -6.8380      2.00000
      2       4.9281      2.00000
      3       7.4412      2.00000
      4       9.4488      2.00000
      5      22.1867      0.00000
      6      26.4346      0.00000
      7      29.4402      0.00000
      8      30.7714      0.00000
      9      40.6844      0.00000
     10      42.2491      0.00000
     11      46.5571      0.00000
     12      51.5640      0.00000

 k-point  51 :       0.5000    0.2500    0.0833
  band No.  band energies     occupation 
      1      -4.9751      2.00000
      2       1.9633      2.00000
      3       7.1272      2.00000
      4       8.4889      2.00000
      5      22.7698      0.00000
      6      27.1812      0.00000
      7      30.1949      0.00000
      8      31.8603      0.00000
      9      39.1471      0.00000
     10      43.6204      0.00000
     11      46.8909      0.00000
     12      49.9024      0.00000

 k-point  52 :      -0.4167    0.2500    0.0833
  band No.  band energies     occupation 
      1      -2.8298      2.00000
      2      -0.7129      2.00000
      3       6.6680      2.00000
      4       8.3144      2.00000
      5      23.0966      0.00000
      6      27.3679      0.00000
      7      32.0044      0.00000
      8      32.5174      0.00000
      9      36.9763      0.00000
     10      44.9002      0.00000
     11      45.7539      0.00000
     12      48.7180      0.00000

 k-point  53 :      -0.3333    0.2500    0.0833
  band No.  band energies     occupation 
      1      -3.5542      2.00000
      2       0.1397      2.00000
      3       6.1727      2.00000
      4       8.9042      2.00000
      5      23.6279      0.00000
      6      26.8284      0.00000
      7      32.0143      0.00000
      8      33.4137      0.00000
      9      36.2153      0.00000
     10      42.4623      0.00000
     11      46.0483      0.00000
     12      50.0003      0.00000

 k-point  54 :      -0.2500    0.2500    0.0833
  band No.  band energies     occupation 
      1      -5.6451      2.00000
      2       3.0087      2.00000
      3       5.9824      2.00000
      4       9.9003      2.00000
      5      24.4177      0.00000
      6      25.7729      0.00000
      7      31.0230      0.00000
      8      31.8430      0.00000
      9      38.3560      0.00000
     10      40.1756      0.00000
     11      46.0529      0.00000
     12      51.9779      0.00000

 k-point  55 :      -0.1667    0.2500    0.0833
  band No.  band energies     occupation 
      1      -7.3700      2.00000
      2       5.8279      2.00000
      3       6.4291      2.00000
      4      11.0633      2.00000
      5      24.0336      0.00000
      6      25.5485      0.00000
      7      29.2943      0.00000
      8      30.8769      0.00000
      9      38.9732      0.00000
     10      40.0075      0.00000
     11      45.3978      0.00000
     12      53.8162      0.00000

 k-point  56 :       0.4167    0.3333    0.0833
  band No.  band energies     occupation 
      1      -6.1565      2.00000
      2       5.7253      2.00000
      3       6.7030      2.00000
      4       7.7290      2.00000
      5      20.7729      0.00000
      6      24.1336      0.00000
      7      31.3571      0.00000
      8      32.5513      0.00000
      9      42.0944      0.00000
     10      43.2199      0.00000
     11      49.1757      0.00000
     12      54.9299      0.00000

 k-point  57 :       0.5000    0.3333    0.0833
  band No.  band energies     occupation 
      1      -4.4513      2.00000
      2       3.5391      2.00000
      3       5.6185      2.00000
      4       6.9331      2.00000
      5      21.7579      0.00000
      6      24.9069      0.00000
      7      31.4485      0.00000
      8      33.8649      0.00000
      9      40.7199      0.00000
     10      43.8471      0.00000
     11      48.9153      0.00000
     12      52.6815      0.00000

 k-point  58 :      -0.4167    0.3333    0.0833
  band No.  band energies     occupation 
      1      -2.4053      2.00000
      2       1.0678      2.00000
      3       4.4700      2.00000
      4       7.0086      2.00000
      5      22.2036      0.00000
      6      27.5042      0.00000
      7      31.1270      0.00000
      8      34.2927      0.00000
      9      38.2651      0.00000
     10      44.3727      0.00000
     11      46.9173      0.00000
     12      51.9758      0.00000

 k-point  59 :      -0.3333    0.3333    0.0833
  band No.  band energies     occupation 
      1      -1.7855      2.00000
      2       0.4483      2.00000
      3       3.5970      2.00000
      4       7.6492      2.00000
      5      22.7567      0.00000
      6      29.0661      0.00000
      7      32.0604      0.00000
      8      33.7030      0.00000
      9      35.8295      0.00000
     10      42.8630      0.00000
     11      46.0437      0.00000
     12      52.8443      0.00000

 k-point  60 :      -0.2500    0.3333    0.0833
  band No.  band energies     occupation 
      1      -3.8280      2.00000
      2       2.7741      2.00000
      3       3.3921      2.00000
      4       8.6732      2.00000
      5      23.5989      0.00000
      6      27.6420      0.00000
      7      32.5698      0.00000
      8      33.3786      0.00000
      9      35.6583      0.00000
     10      40.8760      0.00000
     11      46.2236      0.00000
     12      53.5807      0.00000

 k-point  61 :       0.5000    0.4167    0.0833
  band No.  band energies     occupation 
      1      -3.4902      2.00000
      2       2.9401      2.00000
      3       5.8030      2.00000
      4       6.0291      2.00000
      5      20.7397      0.00000
      6      22.2320      0.00000
      7      34.0339      0.00000
      8      35.2253      0.00000
      9      42.5607      0.00000
     10      43.7901      0.00000
     11      51.2134      0.00000
     12      52.9445      0.00000

 k-point  62 :      -0.4167    0.4167    0.0833
  band No.  band energies     occupation 
      1      -1.5910      2.00000
      2       1.4689      2.00000
      3       3.8756      2.00000
      4       6.0588      2.00000
      5      21.5130      0.00000
      6      24.0412      0.00000
      7      33.7190      0.00000
      8      35.3595      0.00000
      9      40.7433      0.00000
     10      43.7450      0.00000
     11      48.8394      0.00000
     12      53.0959      0.00000

 k-point  63 :      -0.3333    0.4167    0.0833
  band No.  band energies     occupation 
      1      -0.2155      2.00000
      2       0.6818      2.00000
      3       2.1363      2.00000
      4       6.6548      2.00000
      5      21.9979      0.00000
      6      27.4249      0.00000
      7      32.3801      0.00000
      8      34.5088      0.00000
      9      38.3935      0.00000
     10      43.5793      0.00000
     11      46.5896      0.00000
     12      53.9687      0.00000

 k-point  64 :      -0.4167    0.5000    0.0833
  band No.  band energies     occupation 
      1      -0.3790      2.00000
      2      -0.3790      2.00000
      3       5.5439      2.00000
      4       5.5439      2.00000
      5      21.1698      0.00000
      6      21.1698      0.00000
      7      35.7909      0.00000
      8      35.7909      0.00000
      9      43.2035      0.00000
     10      43.2035      0.00000
     11      51.5289      0.00000
     12      51.5289      0.00000

 k-point  65 :       0.5000    0.3333    0.1667
  band No.  band energies     occupation 
      1      -5.2696      2.00000
      2       4.3000      2.00000
      3       5.0411      2.00000
      4       8.2309      2.00000
      5      23.8764      0.00000
      6      25.5249      0.00000
      7      29.9970      0.00000
      8      32.8003      0.00000
      9      39.4670      0.00000
     10      42.4317      0.00000
     11      46.9501      0.00000
     12      53.7230      0.00000

 k-point  66 :      -0.4167    0.3333    0.1667
  band No.  band energies     occupation 
      1      -3.3198      2.00000
      2       1.8528      2.00000
      3       4.7576      2.00000
      4       7.0978      2.00000
      5      24.4592      0.00000
      6      26.3767      0.00000
      7      30.8006      0.00000
      8      33.9983      0.00000
      9      37.0911      0.00000
     10      43.3569      0.00000
     11      47.0381      0.00000
     12      51.9210      0.00000

 k-point  67 :      -0.3333    0.3333    0.1667
  band No.  band energies     occupation 
      1      -1.5527      2.00000
      2      -0.1876      2.00000
      3       4.8619      2.00000
      4       6.5860      2.00000
      5      24.3334      0.00000
      6      27.1269      0.00000
      7      32.6663      0.00000
      8      32.8455      0.00000
      9      36.0344      0.00000
     10      44.1296      0.00000
     11      46.9455      0.00000
     12      50.8076      0.00000

 k-point  68 :      -0.4167    0.4167    0.1667
  band No.  band energies     occupation 
      1      -2.6600      2.00000
      2       2.7936      2.00000
      3       4.2269      2.00000
      4       5.3835      2.00000
      5      23.8495      0.00000
      6      24.7732      0.00000
      7      31.3320      0.00000
      8      34.7967      0.00000
      9      39.4420      0.00000
     10      43.3983      0.00000
     11      49.0826      0.00000
     12      52.2902      0.00000

 k-point  69 :      -0.3333    0.4167    0.1667
  band No.  band energies     occupation 
      1      -0.6922      2.00000
      2       1.1763      2.00000
      3       3.1910      2.00000
      4       5.0583      2.00000
      5      24.4410      0.00000
      6      27.0553      0.00000
      7      31.1469      0.00000
      8      33.0943      0.00000
      9      38.9996      0.00000
     10      43.0384      0.00000
     11      48.6044      0.00000
     12      52.0544      0.00000

 k-point  70 :      -0.2500    0.4167    0.1667
  band No.  band energies     occupation 
      1      -1.3836      2.00000
      2       1.7992      2.00000
      3       2.7169      2.00000
      4       5.8264      2.00000
      5      24.7962      0.00000
      6      27.5512      0.00000
      7      31.4032      0.00000
      8      32.5246      0.00000
      9      37.7774      0.00000
     10      43.1140      0.00000
     11      47.5545      0.00000
     12      52.7289      0.00000

 k-point  71 :      -0.3333    0.5000    0.1667
  band No.  band energies     occupation 
      1       0.2716      2.00000
      2       0.2716      2.00000
      3       4.1448      2.00000
      4       4.1448      2.00000
      5      24.1309      0.00000
      6      24.1309      0.00000
      7      33.4579      0.00000
      8      33.4579      0.00000
      9      41.6938      0.00000
     10      41.6938      0.00000
     11      50.7947      0.00000
     12      50.7947      0.00000

 k-point  72 :      -0.2500    0.5000    0.2500
  band No.  band energies     occupation 
      1       0.7934      2.00000
      2       0.7934      2.00000
      3       3.2970      2.00000
      4       3.2970      2.00000
      5      26.5408      0.00000
      6      26.5408      0.00000
      7      31.1495      0.00000
      8      31.1495      0.00000
      9      41.2105      0.00000
     10      41.2105      0.00000
     11      50.6073      0.00000
     12      50.6073      0.00000


--------------------------------------------------------------------------------------------------------


 soft charge-density along one line, spin component           1
         0         1         2         3         4         5         6         7         8         9
 total charge-density along one line
 
 pseudopotential strength for first ion, spin component:           1
  9.183   0.000  12.188   0.000  -0.000   0.000  -0.000   0.000   0.000   0.000   0.000   0.000   0.000   0.000  -0.000   0.000
 12.188   0.000  16.175   0.000  -0.000   0.000  -0.000   0.000   0.000   0.000   0.000   0.000   0.000   0.000  -0.000   0.000
 -0.000   0.000  -0.000   0.000  -3.407   0.000  -0.000   0.000   0.000   0.000   6.654   0.000   0.000   0.000  -0.000   0.000
 -0.000   0.000  -0.000   0.000  -0.000   0.000  -3.407   0.000   0.000   0.000   0.000   0.000   6.654   0.000  -0.000   0.000
  0.000   0.000   0.000   0.000   0.000   0.000   0.000   0.000  -3.407   0.000  -0.000   0.000  -0.000   0.000   6.654   0.000
  0.000   0.000   0.000   0.000   6.654   0.000   0.000   0.000  -0.000   0.000 -15.071   0.000  -0.000   0.000   0.000   0.000
  0.000   0.000   0.000   0.000   0.000   0.000   6.654   0.000  -0.000   0.000  -0.000   0.000 -15.071   0.000   0.000   0.000
 -0.000   0.000  -0.000   0.000  -0.000   0.000  -0.000   0.000   6.654   0.000   0.000   0.000   0.000   0.000 -15.071   0.000
 total augmentation occupancy for first ion, spin component:           1
  2.000   0.000   0.000   0.000   0.000   0.000   0.000   0.000
  0.000   0.000   0.000   0.000   0.000   0.000   0.000   0.000
  0.000   0.000   0.667   0.000   0.000   0.000   0.000   0.000
  0.000   0.000   0.000   0.667   0.000   0.000   0.000   0.000
  0.000   0.000   0.000   0.000   0.667   0.000   0.000   0.000
  0.000   0.000   0.000   0.000   0.000   0.000   0.000   0.000
  0.000   0.000   0.000   0.000   0.000   0.000   0.000   0.000
  0.000   0.000   0.000   0.000   0.000   0.000   0.000   0.000


------------------------ aborting loop because EDIFF is reached ----------------------------------------


