       N       E                     dE             d eps       ncg     rms          rms(c)
DAV:   1    -0.164840413334E+02   -0.16484E+02   -0.12684E-08   576   0.138E-03    0.783E-05
DAV:   2    -0.164840413332E+02    0.23715E-09   -0.26158E-10   576   0.214E-04    0.431E-05
DAV:   3    -0.164840413337E+02   -0.44133E-09   -0.83394E-11   576   0.897E-05    0.853E-06
DAV:   4    -0.164840413338E+02   -0.11937E-09   -0.22904E-12   576   0.220E-05    0.654E-06
DAV:   5    -0.164840413339E+02   -0.13108E-09   -0.50269E-13   576   0.882E-06
