<?xml version="1.0" encoding="ISO-8859-1"?>
<modeling>
 <generator>
  <i name="program" type="string">vasp </i>
  <i name="version" type="string">5.3.3  </i>
  <i name="subversion" type="string">18Dez12 (build Oct 01 2014 18:44:37) complex                          parallel </i>
  <i name="platform" type="string">LinuxIFC </i>
  <i name="date" type="string">2014 10 29 </i>
  <i name="time" type="string">17:05:09 </i>
 </generator>
 <incar>
  <i type="int" name="ISTART">     1</i>
  <i type="string" name="PREC">high</i>
  <i type="string" name="ALGO"> Normal</i>
  <i type="int" name="ICHARG">     0</i>
  <i type="int" name="NELM">    50</i>
  <i type="int" name="NELMIN">     5</i>
  <i name="EDIFF">      0.00001000</i>
  <i type="int" name="NBANDS">     8</i>
  <i type="logical" name="LREAL"> F  </i>
  <i type="int" name="ISMEAR">    -5</i>
  <i type="int" name="NELM">    50</i>
  <i type="logical" name="LWANNIER90"> T  </i>
 </incar>
 <kpoints>
  <generation param="Gamma">
   <v type="int" name="divisions">      12       12       12 </v>
   <v name="usershift">      0.00000000       0.00000000       0.00000000 </v>
   <v name="genvec1">      0.08333333       0.00000000       0.00000000 </v>
   <v name="genvec2">      0.00000000       0.08333333       0.00000000 </v>
   <v name="genvec3">      0.00000000       0.00000000       0.08333333 </v>
   <v name="shift">      0.00000000       0.00000000       0.00000000 </v>
  </generation>
  <varray name="kpointlist" >
   <v>       0.00000000       0.00000000       0.00000000 </v>
   <v>       0.08333333       0.00000000       0.00000000 </v>
   <v>       0.16666667       0.00000000       0.00000000 </v>
   <v>       0.25000000       0.00000000       0.00000000 </v>
   <v>       0.33333333       0.00000000       0.00000000 </v>
   <v>       0.41666667       0.00000000       0.00000000 </v>
   <v>       0.50000000       0.00000000       0.00000000 </v>
   <v>       0.08333333       0.08333333       0.00000000 </v>
   <v>       0.16666667       0.08333333       0.00000000 </v>
   <v>       0.25000000       0.08333333       0.00000000 </v>
   <v>       0.33333333       0.08333333       0.00000000 </v>
   <v>       0.41666667       0.08333333       0.00000000 </v>
   <v>       0.50000000       0.08333333       0.00000000 </v>
   <v>      -0.41666667       0.08333333       0.00000000 </v>
   <v>      -0.33333333       0.08333333       0.00000000 </v>
   <v>      -0.25000000       0.08333333       0.00000000 </v>
   <v>      -0.16666667       0.08333333       0.00000000 </v>
   <v>      -0.08333333       0.08333333       0.00000000 </v>
   <v>       0.16666667       0.16666667       0.00000000 </v>
   <v>       0.25000000       0.16666667       0.00000000 </v>
   <v>       0.33333333       0.16666667       0.00000000 </v>
   <v>       0.41666667       0.16666667       0.00000000 </v>
   <v>       0.50000000       0.16666667       0.00000000 </v>
   <v>      -0.41666667       0.16666667       0.00000000 </v>
   <v>      -0.33333333       0.16666667       0.00000000 </v>
   <v>      -0.25000000       0.16666667       0.00000000 </v>
   <v>      -0.16666667       0.16666667       0.00000000 </v>
   <v>       0.25000000       0.25000000       0.00000000 </v>
   <v>       0.33333333       0.25000000       0.00000000 </v>
   <v>       0.41666667       0.25000000       0.00000000 </v>
   <v>       0.50000000       0.25000000       0.00000000 </v>
   <v>      -0.41666667       0.25000000       0.00000000 </v>
   <v>      -0.33333333       0.25000000       0.00000000 </v>
   <v>      -0.25000000       0.25000000       0.00000000 </v>
   <v>       0.33333333       0.33333333       0.00000000 </v>
   <v>       0.41666667       0.33333333       0.00000000 </v>
   <v>       0.50000000       0.33333333       0.00000000 </v>
   <v>      -0.41666667       0.33333333       0.00000000 </v>
   <v>      -0.33333333       0.33333333       0.00000000 </v>
   <v>       0.41666667       0.41666667       0.00000000 </v>
   <v>       0.50000000       0.41666667       0.00000000 </v>
   <v>      -0.41666667       0.41666667       0.00000000 </v>
   <v>       0.50000000       0.50000000       0.00000000 </v>
   <v>       0.25000000       0.16666667       0.08333333 </v>
   <v>       0.33333333       0.16666667       0.08333333 </v>
   <v>       0.41666667       0.16666667       0.08333333 </v>
   <v>       0.50000000       0.16666667       0.08333333 </v>
   <v>      -0.41666667       0.16666667       0.08333333 </v>
   <v>       0.33333333       0.25000000       0.08333333 </v>
   <v>       0.41666667       0.25000000       0.08333333 </v>
   <v>       0.50000000       0.25000000       0.08333333 </v>
   <v>      -0.41666667       0.25000000       0.08333333 </v>
   <v>      -0.33333333       0.25000000       0.08333333 </v>
   <v>      -0.25000000       0.25000000       0.08333333 </v>
   <v>      -0.16666667       0.25000000       0.08333333 </v>
   <v>       0.41666667       0.33333333       0.08333333 </v>
   <v>       0.50000000       0.33333333       0.08333333 </v>
   <v>      -0.41666667       0.33333333       0.08333333 </v>
   <v>      -0.33333333       0.33333333       0.08333333 </v>
   <v>      -0.25000000       0.33333333       0.08333333 </v>
   <v>       0.50000000       0.41666667       0.08333333 </v>
   <v>      -0.41666667       0.41666667       0.08333333 </v>
   <v>      -0.33333333       0.41666667       0.08333333 </v>
   <v>      -0.41666667       0.50000000       0.08333333 </v>
   <v>       0.50000000       0.33333333       0.16666667 </v>
   <v>      -0.41666667       0.33333333       0.16666667 </v>
   <v>      -0.33333333       0.33333333       0.16666667 </v>
   <v>      -0.41666667       0.41666667       0.16666667 </v>
   <v>      -0.33333333       0.41666667       0.16666667 </v>
   <v>      -0.25000000       0.41666667       0.16666667 </v>
   <v>      -0.33333333       0.50000000       0.16666667 </v>
   <v>      -0.25000000       0.50000000       0.25000000 </v>
  </varray>
  <varray name="weights" >
   <v>       0.00057870 </v>
   <v>       0.00462963 </v>
   <v>       0.00462963 </v>
   <v>       0.00462963 </v>
   <v>       0.00462963 </v>
   <v>       0.00462963 </v>
   <v>       0.00231481 </v>
   <v>       0.00347222 </v>
   <v>       0.01388889 </v>
   <v>       0.01388889 </v>
   <v>       0.01388889 </v>
   <v>       0.01388889 </v>
   <v>       0.01388889 </v>
   <v>       0.01388889 </v>
   <v>       0.01388889 </v>
   <v>       0.01388889 </v>
   <v>       0.01388889 </v>
   <v>       0.00694444 </v>
   <v>       0.00347222 </v>
   <v>       0.01388889 </v>
   <v>       0.01388889 </v>
   <v>       0.01388889 </v>
   <v>       0.01388889 </v>
   <v>       0.01388889 </v>
   <v>       0.01388889 </v>
   <v>       0.01388889 </v>
   <v>       0.00694444 </v>
   <v>       0.00347222 </v>
   <v>       0.01388889 </v>
   <v>       0.01388889 </v>
   <v>       0.01388889 </v>
   <v>       0.01388889 </v>
   <v>       0.01388889 </v>
   <v>       0.00694444 </v>
   <v>       0.00347222 </v>
   <v>       0.01388889 </v>
   <v>       0.01388889 </v>
   <v>       0.01388889 </v>
   <v>       0.00694444 </v>
   <v>       0.00347222 </v>
   <v>       0.01388889 </v>
   <v>       0.00694444 </v>
   <v>       0.00173611 </v>
   <v>       0.01388889 </v>
   <v>       0.02777778 </v>
   <v>       0.02777778 </v>
   <v>       0.02777778 </v>
   <v>       0.01388889 </v>
   <v>       0.01388889 </v>
   <v>       0.02777778 </v>
   <v>       0.02777778 </v>
   <v>       0.02777778 </v>
   <v>       0.02777778 </v>
   <v>       0.02777778 </v>
   <v>       0.01388889 </v>
   <v>       0.01388889 </v>
   <v>       0.02777778 </v>
   <v>       0.02777778 </v>
   <v>       0.02777778 </v>
   <v>       0.01388889 </v>
   <v>       0.01388889 </v>
   <v>       0.02777778 </v>
   <v>       0.01388889 </v>
   <v>       0.00694444 </v>
   <v>       0.01388889 </v>
   <v>       0.02777778 </v>
   <v>       0.01388889 </v>
   <v>       0.01388889 </v>
   <v>       0.02777778 </v>
   <v>       0.01388889 </v>
   <v>       0.00694444 </v>
   <v>       0.00347222 </v>
  </varray>
  <varray name="tetrahedronlist"  type="int" >
   <v type="int" >       24        1        2        2        8 </v>
   <v type="int" >       48        2        8        9       18 </v>
   <v type="int" >       48        2        3        9       18 </v>
   <v type="int" >       24        2        2        8       18 </v>
   <v type="int" >       48        3        9       10       17 </v>
   <v type="int" >       48        3        4       10       17 </v>
   <v type="int" >       48        3        9       17       18 </v>
   <v type="int" >       48        4       10       11       16 </v>
   <v type="int" >       48        4        5       11       16 </v>
   <v type="int" >       48        4       10       16       17 </v>
   <v type="int" >       48        5       11       12       15 </v>
   <v type="int" >       48        5        6       12       15 </v>
   <v type="int" >       48        5       11       15       16 </v>
   <v type="int" >       48        6       12       13       14 </v>
   <v type="int" >       48        6        7       13       14 </v>
   <v type="int" >       48        6       12       14       15 </v>
   <v type="int" >       48        7       13       13       14 </v>
   <v type="int" >       24        8        9        9       19 </v>
   <v type="int" >       24        8        9        9       18 </v>
   <v type="int" >       48        9       19       20       44 </v>
   <v type="int" >       48        9       10       20       44 </v>
   <v type="int" >       48        9       10       17       44 </v>
   <v type="int" >       24        9        9       19       44 </v>
   <v type="int" >       24        9        9       18       44 </v>
   <v type="int" >       48        9       17       18       44 </v>
   <v type="int" >       48       10       20       21       45 </v>
   <v type="int" >       48       10       11       21       45 </v>
   <v type="int" >       48       10       11       16       45 </v>
   <v type="int" >       48       10       20       44       45 </v>
   <v type="int" >       48       10       17       44       45 </v>
   <v type="int" >       48       10       16       17       45 </v>
   <v type="int" >       48       11       21       22       46 </v>
   <v type="int" >       48       11       12       22       46 </v>
   <v type="int" >       48       11       12       15       46 </v>
   <v type="int" >       48       11       21       45       46 </v>
   <v type="int" >       48       11       16       45       46 </v>
   <v type="int" >       48       11       15       16       46 </v>
   <v type="int" >       48       12       22       23       47 </v>
   <v type="int" >       48       12       13       23       47 </v>
   <v type="int" >       48       12       13       14       47 </v>
   <v type="int" >       48       12       22       46       47 </v>
   <v type="int" >       48       12       15       46       47 </v>
   <v type="int" >       48       12       14       15       47 </v>
   <v type="int" >       48       13       23       24       48 </v>
   <v type="int" >       48       13       14       24       48 </v>
   <v type="int" >       48       13       13       14       48 </v>
   <v type="int" >       48       13       23       47       48 </v>
   <v type="int" >       48       13       14       47       48 </v>
   <v type="int" >       48       14       24       25       47 </v>
   <v type="int" >       48       14       15       25       47 </v>
   <v type="int" >       48       14       24       47       48 </v>
   <v type="int" >       48       15       25       26       46 </v>
   <v type="int" >       48       15       16       26       46 </v>
   <v type="int" >       48       15       25       46       47 </v>
   <v type="int" >       48       16       26       27       45 </v>
   <v type="int" >       48       16       17       27       45 </v>
   <v type="int" >       48       16       26       45       46 </v>
   <v type="int" >       24       17       17       27       44 </v>
   <v type="int" >       24       17       17       18       44 </v>
   <v type="int" >       48       17       27       44       45 </v>
   <v type="int" >       24       19       20       20       28 </v>
   <v type="int" >       24       19       20       20       44 </v>
   <v type="int" >       48       20       28       29       49 </v>
   <v type="int" >       48       20       21       29       49 </v>
   <v type="int" >       48       20       21       45       49 </v>
   <v type="int" >       24       20       20       28       49 </v>
   <v type="int" >       24       20       20       44       49 </v>
   <v type="int" >       48       20       44       45       49 </v>
   <v type="int" >       48       21       29       30       50 </v>
   <v type="int" >       48       21       22       30       50 </v>
   <v type="int" >       48       21       22       46       50 </v>
   <v type="int" >       48       21       29       49       50 </v>
   <v type="int" >       48       21       45       49       50 </v>
   <v type="int" >       48       21       45       46       50 </v>
   <v type="int" >       48       22       30       31       51 </v>
   <v type="int" >       48       22       23       31       51 </v>
   <v type="int" >       48       22       23       47       51 </v>
   <v type="int" >       48       22       30       50       51 </v>
   <v type="int" >       48       22       46       50       51 </v>
   <v type="int" >       48       22       46       47       51 </v>
   <v type="int" >       48       23       31       32       52 </v>
   <v type="int" >       48       23       24       32       52 </v>
   <v type="int" >       48       23       24       48       52 </v>
   <v type="int" >       48       23       31       51       52 </v>
   <v type="int" >       48       23       47       51       52 </v>
   <v type="int" >       48       23       47       48       52 </v>
   <v type="int" >       48       24       32       33       53 </v>
   <v type="int" >       48       24       25       33       53 </v>
   <v type="int" >       48       24       25       47       53 </v>
   <v type="int" >       48       24       32       52       53 </v>
   <v type="int" >       48       24       48       52       53 </v>
   <v type="int" >       48       24       47       48       53 </v>
   <v type="int" >       48       25       33       34       54 </v>
   <v type="int" >       48       25       26       34       54 </v>
   <v type="int" >       48       25       26       46       54 </v>
   <v type="int" >       48       25       33       53       54 </v>
   <v type="int" >       48       25       47       53       54 </v>
   <v type="int" >       48       25       46       47       54 </v>
   <v type="int" >       24       26       26       34       55 </v>
   <v type="int" >       24       26       26       27       55 </v>
   <v type="int" >       48       26       27       45       55 </v>
   <v type="int" >       48       26       34       54       55 </v>
   <v type="int" >       48       26       46       54       55 </v>
   <v type="int" >       48       26       45       46       55 </v>
   <v type="int" >       24       27       45       45       55 </v>
   <v type="int" >       24       27       44       45       45 </v>
   <v type="int" >       24       28       29       29       35 </v>
   <v type="int" >       24       28       29       29       49 </v>
   <v type="int" >       48       29       35       36       56 </v>
   <v type="int" >       48       29       30       36       56 </v>
   <v type="int" >       48       29       30       50       56 </v>
   <v type="int" >       24       29       29       35       56 </v>
   <v type="int" >       24       29       29       49       56 </v>
   <v type="int" >       48       29       49       50       56 </v>
   <v type="int" >       48       30       36       37       57 </v>
   <v type="int" >       48       30       31       37       57 </v>
   <v type="int" >       48       30       31       51       57 </v>
   <v type="int" >       48       30       36       56       57 </v>
   <v type="int" >       48       30       50       56       57 </v>
   <v type="int" >       48       30       50       51       57 </v>
   <v type="int" >       48       31       37       38       58 </v>
   <v type="int" >       48       31       32       38       58 </v>
   <v type="int" >       48       31       32       52       58 </v>
   <v type="int" >       48       31       37       57       58 </v>
   <v type="int" >       48       31       51       57       58 </v>
   <v type="int" >       48       31       51       52       58 </v>
   <v type="int" >       48       32       38       39       59 </v>
   <v type="int" >       48       32       33       39       59 </v>
   <v type="int" >       48       32       33       53       59 </v>
   <v type="int" >       48       32       38       58       59 </v>
   <v type="int" >       48       32       52       58       59 </v>
   <v type="int" >       48       32       52       53       59 </v>
   <v type="int" >       24       33       33       39       60 </v>
   <v type="int" >       24       33       33       34       60 </v>
   <v type="int" >       48       33       34       54       60 </v>
   <v type="int" >       48       33       39       59       60 </v>
   <v type="int" >       48       33       53       59       60 </v>
   <v type="int" >       48       33       53       54       60 </v>
   <v type="int" >       24       34       54       54       60 </v>
   <v type="int" >       24       34       54       54       55 </v>
   <v type="int" >       24       35       36       36       40 </v>
   <v type="int" >       24       35       36       36       56 </v>
   <v type="int" >       48       36       40       41       61 </v>
   <v type="int" >       48       36       37       41       61 </v>
   <v type="int" >       48       36       37       57       61 </v>
   <v type="int" >       24       36       36       40       61 </v>
   <v type="int" >       24       36       36       56       61 </v>
   <v type="int" >       48       36       56       57       61 </v>
   <v type="int" >       48       37       41       42       62 </v>
   <v type="int" >       48       37       38       42       62 </v>
   <v type="int" >       48       37       38       58       62 </v>
   <v type="int" >       48       37       41       61       62 </v>
   <v type="int" >       48       37       57       61       62 </v>
   <v type="int" >       48       37       57       58       62 </v>
   <v type="int" >       24       38       38       42       63 </v>
   <v type="int" >       24       38       38       39       63 </v>
   <v type="int" >       48       38       39       59       63 </v>
   <v type="int" >       48       38       42       62       63 </v>
   <v type="int" >       48       38       58       62       63 </v>
   <v type="int" >       48       38       58       59       63 </v>
   <v type="int" >       24       39       59       59       63 </v>
   <v type="int" >       24       39       59       59       60 </v>
   <v type="int" >       24       40       41       41       43 </v>
   <v type="int" >       24       40       41       41       61 </v>
   <v type="int" >       48       41       41       43       64 </v>
   <v type="int" >       24       41       41       42       64 </v>
   <v type="int" >       48       41       42       62       64 </v>
   <v type="int" >       24       41       41       61       64 </v>
   <v type="int" >       48       41       61       62       64 </v>
   <v type="int" >       24       42       62       62       64 </v>
   <v type="int" >       24       42       62       62       63 </v>
   <v type="int" >       24       44       45       45       49 </v>
   <v type="int" >       48       45       49       50       55 </v>
   <v type="int" >       48       45       46       50       55 </v>
   <v type="int" >       24       45       45       49       55 </v>
   <v type="int" >       48       46       50       51       54 </v>
   <v type="int" >       48       46       47       51       54 </v>
   <v type="int" >       48       46       50       54       55 </v>
   <v type="int" >       48       47       51       52       53 </v>
   <v type="int" >       48       47       48       52       53 </v>
   <v type="int" >       48       47       51       53       54 </v>
   <v type="int" >       48       48       52       52       53 </v>
   <v type="int" >       24       49       50       50       56 </v>
   <v type="int" >       24       49       50       50       55 </v>
   <v type="int" >       48       50       56       57       65 </v>
   <v type="int" >       48       50       51       57       65 </v>
   <v type="int" >       48       50       51       54       65 </v>
   <v type="int" >       24       50       50       56       65 </v>
   <v type="int" >       24       50       50       55       65 </v>
   <v type="int" >       48       50       54       55       65 </v>
   <v type="int" >       48       51       57       58       66 </v>
   <v type="int" >       48       51       52       58       66 </v>
   <v type="int" >       48       51       52       53       66 </v>
   <v type="int" >       48       51       57       65       66 </v>
   <v type="int" >       48       51       54       65       66 </v>
   <v type="int" >       48       51       53       54       66 </v>
   <v type="int" >       48       52       58       59       67 </v>
   <v type="int" >       48       52       53       59       67 </v>
   <v type="int" >       48       52       52       53       67 </v>
   <v type="int" >       48       52       58       66       67 </v>
   <v type="int" >       48       52       53       66       67 </v>
   <v type="int" >       48       53       59       60       66 </v>
   <v type="int" >       48       53       54       60       66 </v>
   <v type="int" >       48       53       59       66       67 </v>
   <v type="int" >       24       54       54       60       65 </v>
   <v type="int" >       24       54       54       55       65 </v>
   <v type="int" >       48       54       60       65       66 </v>
   <v type="int" >       24       56       57       57       61 </v>
   <v type="int" >       24       56       57       57       65 </v>
   <v type="int" >       48       57       61       62       68 </v>
   <v type="int" >       48       57       58       62       68 </v>
   <v type="int" >       48       57       58       66       68 </v>
   <v type="int" >       24       57       57       61       68 </v>
   <v type="int" >       24       57       57       65       68 </v>
   <v type="int" >       48       57       65       66       68 </v>
   <v type="int" >       48       58       62       63       69 </v>
   <v type="int" >       48       58       59       63       69 </v>
   <v type="int" >       48       58       59       67       69 </v>
   <v type="int" >       48       58       62       68       69 </v>
   <v type="int" >       48       58       66       68       69 </v>
   <v type="int" >       48       58       66       67       69 </v>
   <v type="int" >       24       59       59       63       70 </v>
   <v type="int" >       24       59       59       60       70 </v>
   <v type="int" >       48       59       60       66       70 </v>
   <v type="int" >       48       59       63       69       70 </v>
   <v type="int" >       48       59       67       69       70 </v>
   <v type="int" >       48       59       66       67       70 </v>
   <v type="int" >       24       60       66       66       70 </v>
   <v type="int" >       24       60       65       66       66 </v>
   <v type="int" >       24       61       62       62       64 </v>
   <v type="int" >       24       61       62       62       68 </v>
   <v type="int" >       48       62       62       64       71 </v>
   <v type="int" >       24       62       62       63       71 </v>
   <v type="int" >       48       62       63       69       71 </v>
   <v type="int" >       24       62       62       68       71 </v>
   <v type="int" >       48       62       68       69       71 </v>
   <v type="int" >       24       63       69       69       71 </v>
   <v type="int" >       24       63       69       69       70 </v>
   <v type="int" >       24       65       66       66       68 </v>
   <v type="int" >       48       66       68       69       70 </v>
   <v type="int" >       48       66       67       69       70 </v>
   <v type="int" >       24       66       66       68       70 </v>
   <v type="int" >       48       67       69       69       70 </v>
   <v type="int" >       24       68       69       69       71 </v>
   <v type="int" >       24       68       69       69       70 </v>
   <v type="int" >       48       69       69       71       72 </v>
   <v type="int" >       96       69       69       70       72 </v>
  </varray>
  <i name="volumeweight">      0.00009645 </i>
 </kpoints>
 <parameters>
  <separator name="general" >
   <i type="string" name="SYSTEM">unknown system</i>
   <i type="logical" name="LCOMPAT"> F  </i>
  </separator>
  <separator name="electronic" >
   <i type="string" name="PREC">high</i>
   <i name="ENMAX">    500.00000000</i>
   <i name="ENAUG">    644.87300000</i>
   <i name="EDIFF">      0.00001000</i>
   <i type="int" name="IALGO">    38</i>
   <i type="int" name="IWAVPR">    10</i>
   <i type="int" name="NBANDS">     8</i>
   <i name="NELECT">      8.00000000</i>
   <i type="int" name="TURBO">     0</i>
   <i type="int" name="IRESTART">     0</i>
   <i type="int" name="NREBOOT">     0</i>
   <i type="int" name="NMIN">     0</i>
   <i name="EREF">      0.00000000</i>
   <separator name="electronic smearing" >
    <i type="int" name="ISMEAR">    -5</i>
    <i name="SIGMA">      0.20000000</i>
    <i name="KSPACING">      0.50000000</i>
    <i type="logical" name="KGAMMA"> T  </i>
   </separator>
   <separator name="electronic projectors" >
    <i type="logical" name="LREAL"> F  </i>
    <v name="ROPT">      0.00000000</v>
    <i type="int" name="LMAXPAW">  -100</i>
    <i type="int" name="LMAXMIX">     2</i>
    <i type="logical" name="NLSPLINE"> F  </i>
   </separator>
   <separator name="electronic startup" >
    <i type="int" name="ISTART">     1</i>
    <i type="int" name="ICHARG">     0</i>
    <i type="int" name="INIWAV">     1</i>
   </separator>
   <separator name="electronic spin" >
    <i type="int" name="ISPIN">     1</i>
    <i type="logical" name="LNONCOLLINEAR"> F  </i>
    <v name="MAGMOM">      1.00000000      1.00000000</v>
    <i name="NUPDOWN">     -1.00000000</i>
    <i type="logical" name="LSORBIT"> F  </i>
    <v name="SAXIS">      0.00000000      0.00000000      1.00000000</v>
    <i type="logical" name="LSPIRAL"> F  </i>
    <v name="QSPIRAL">      0.00000000      0.00000000      0.00000000</v>
    <i type="logical" name="LZEROZ"> F  </i>
   </separator>
   <separator name="electronic exchange-correlation" >
    <i type="logical" name="LASPH"> F  </i>
    <i type="logical" name="LMETAGGA"> F  </i>
   </separator>
   <separator name="electronic convergence" >
    <i type="int" name="NELM">    50</i>
    <i type="int" name="NELMDL">     0</i>
    <i type="int" name="NELMIN">     5</i>
    <i name="ENINI">    500.00000000</i>
    <separator name="electronic convergence detail" >
     <i type="logical" name="LDIAG"> T  </i>
     <i type="logical" name="LSUBROT"> T  </i>
     <i name="WEIMIN">      0.00000000</i>
     <i name="EBREAK">      0.00000031</i>
     <i name="DEPER">      0.30000000</i>
     <i type="int" name="NRMM">     4</i>
     <i name="TIME">      0.40000000</i>
    </separator>
   </separator>
   <separator name="electronic mixer" >
    <i name="AMIX">      0.40000000</i>
    <i name="BMIX">      1.00000000</i>
    <i name="AMIN">      0.10000000</i>
    <i name="AMIX_MAG">      1.60000000</i>
    <i name="BMIX_MAG">      1.00000000</i>
    <separator name="electronic mixer details" >
     <i type="int" name="IMIX">     4</i>
     <i type="int" name="MAXMIX">   -45</i>
     <i name="WC">    100.00000000</i>
     <i type="int" name="INIMIX">     1</i>
     <i type="int" name="MIXPRE">     1</i>
     <i type="int" name="MREMOVE">     5</i>
    </separator>
   </separator>
   <separator name="electronic dipolcorrection" >
    <i type="logical" name="LDIPOL"> F  </i>
    <i type="logical" name="LMONO"> F  </i>
    <i type="int" name="IDIPOL">     0</i>
    <i name="EPSILON">      1.00000000</i>
    <v name="DIPOL">   -100.00000000   -100.00000000   -100.00000000</v>
    <i name="EFIELD">      0.00000000</i>
   </separator>
  </separator>
  <separator name="grids" >
   <i type="int" name="NGX">    18</i>
   <i type="int" name="NGY">    18</i>
   <i type="int" name="NGZ">    18</i>
   <i type="int" name="NGXF">    28</i>
   <i type="int" name="NGYF">    28</i>
   <i type="int" name="NGZF">    28</i>
   <i type="logical" name="ADDGRID"> F  </i>
  </separator>
  <separator name="ionic" >
   <i type="int" name="NSW">     0</i>
   <i type="int" name="IBRION">    -1</i>
   <i type="int" name="ISIF">     2</i>
   <i name="PSTRESS">      0.00000000</i>
   <i name="EDIFFG">      0.00010000</i>
   <i type="int" name="NFREE">     0</i>
   <i name="POTIM">      0.50000000</i>
   <i name="SMASS">     -3.00000000</i>
   <i name="SCALEE">      1.00000000</i>
  </separator>
  <separator name="ionic md" >
   <i name="TEBEG">      0.00010000</i>
   <i name="TEEND">      0.00010000</i>
   <i type="int" name="NBLOCK">     1</i>
   <i type="int" name="KBLOCK">     1</i>
   <i type="int" name="NPACO">   256</i>
   <i name="APACO">     16.00000000</i>
  </separator>
  <separator name="symmetry" >
   <i type="int" name="ISYM">     2</i>
   <i name="SYMPREC">      0.00001000</i>
  </separator>
  <separator name="dos" >
   <i type="logical" name="LORBIT"> F  </i>
   <v name="RWIGS">     -1.00000000</v>
   <i type="int" name="NEDOS">   301</i>
   <i name="EMIN">     10.00000000</i>
   <i name="EMAX">    -10.00000000</i>
   <i name="EFERMI">      0.00000000</i>
  </separator>
  <separator name="writing" >
   <i type="int" name="NWRITE">     2</i>
   <i type="logical" name="LWAVE"> T  </i>
   <i type="logical" name="LCHARG"> T  </i>
   <i type="logical" name="LPARD"> F  </i>
   <i type="logical" name="LVTOT"> F  </i>
   <i type="logical" name="LVHAR"> F  </i>
   <i type="logical" name="LELF"> F  </i>
   <i type="logical" name="LOPTICS"> F  </i>
   <v name="STM">      0.00000000      0.00000000      0.00000000      0.00000000      0.00000000      0.00000000      0.00000000</v>
  </separator>
  <separator name="performance" >
   <i type="int" name="NPAR">     4</i>
   <i type="int" name="NSIM">     4</i>
   <i type="int" name="NBLK">    -1</i>
   <i type="logical" name="LPLANE"> T  </i>
   <i type="logical" name="LSCALAPACK"> F  </i>
   <i type="logical" name="LSCAAWARE"> F  </i>
   <i type="logical" name="LSCALU"> F  </i>
   <i type="logical" name="LASYNC"> F  </i>
   <i type="logical" name="LORBITALREAL"> F  </i>
  </separator>
  <separator name="miscellaneous" >
   <i type="int" name="IDIOT">     3</i>
   <i type="logical" name="LMUSIC"> F  </i>
   <v name="POMASS">     12.01100000</v>
   <v name="DARWINR">      0.00000000</v>
   <v name="DARWINV">      1.00000000</v>
   <i type="logical" name="LCORR"> T  </i>
  </separator>
  <i type="logical" name="GGA_COMPAT"> T  </i>
  <i type="logical" name="LBERRY"> F  </i>
  <i type="int" name="ICORELEVEL">     0</i>
  <i type="logical" name="LDAU"> F  </i>
  <i type="int" name="I_CONSTRAINED_M">     0</i>
  <separator name="electronic exchange-correlation" >
   <i type="string" name="GGA">--</i>
   <i type="int" name="VOSKOWN">     0</i>
   <i type="logical" name="LHFCALC"> F  </i>
   <i type="string" name="PRECFOCK"></i>
   <i type="logical" name="LSYMGRAD"> F  </i>
   <i type="logical" name="LHFONE"> F  </i>
   <i type="logical" name="LRHFCALC"> F  </i>
   <i type="logical" name="LTHOMAS"> F  </i>
   <i type="logical" name="LMODELHF"> F  </i>
   <i name="ENCUT4O">     -1.00000000</i>
   <i type="int" name="EXXOEP">     0</i>
   <i type="int" name="FOURORBIT">     0</i>
   <i name="AEXX">      0.00000000</i>
   <i name="HFALPHA">      0.00000000</i>
   <i name="MCALPHA">      0.00000000</i>
   <i name="ALDAX">      1.00000000</i>
   <i name="AGGAX">      1.00000000</i>
   <i name="ALDAC">      1.00000000</i>
   <i name="AGGAC">      1.00000000</i>
   <i type="int" name="NKREDX">     1</i>
   <i type="int" name="NKREDY">     1</i>
   <i type="int" name="NKREDZ">     1</i>
   <i type="logical" name="SHIFTRED"> F  </i>
   <i type="logical" name="ODDONLY"> F  </i>
   <i type="logical" name="EVENONLY"> F  </i>
   <i type="int" name="LMAXFOCK">     0</i>
   <i type="int" name="NMAXFOCKAE">     0</i>
   <i type="logical" name="LFOCKAEDFT"> F  </i>
   <i name="HFSCREEN">      0.00000000</i>
   <i name="HFSCREENC">      0.00000000</i>
   <i type="int" name="NBANDSGWLOW">     0</i>
  </separator>
  <separator name="vdW DFT" >
   <i type="logical" name="LUSE_VDW"> F  </i>
   <i name="Zab_VDW">     -0.84910000</i>
   <i name="PARAM1">      0.12340000</i>
   <i name="PARAM2">      1.00000000</i>
   <i name="PARAM3">      0.00000000</i>
  </separator>
  <separator name="model GW" >
   <i type="int" name="MODEL_GW">     0</i>
   <i name="MODEL_EPS0">      2.52263124</i>
   <i name="MODEL_ALPHA">      1.00000000</i>
  </separator>
  <separator name="linear response parameters" >
   <i type="logical" name="LEPSILON"> F  </i>
   <i type="logical" name="LRPA"> F  </i>
   <i type="logical" name="LNABLA"> F  </i>
   <i type="logical" name="LVEL"> F  </i>
   <i type="int" name="KINTER">     0</i>
   <i name="CSHIFT">      0.10000000</i>
   <i name="OMEGAMAX">     -1.00000000</i>
   <i name="DEG_THRESHOLD">      0.00200000</i>
  </separator>
  <separator name="orbital magnetization" >
   <i type="logical" name="NUCIND"> F  </i>
   <v name="MAGPOS">      0.00000000      0.00000000      0.00000000</v>
   <i type="logical" name="LNICSALL"> T  </i>
   <i type="logical" name="ORBITALMAG"> F  </i>
   <i type="logical" name="LMAGBLOCH"> F  </i>
   <i type="logical" name="LCHIMAG"> F  </i>
   <i type="logical" name="LGAUGE"> T  </i>
   <i type="int" name="MAGATOM">     0</i>
   <v name="MAGDIPOL">      0.00000000      0.00000000      0.00000000</v>
   <v name="AVECCONST">      0.00000000      0.00000000      0.00000000</v>
  </separator>
  <separator name="response functions" >
   <i type="logical" name="LADDER"> F  </i>
   <i type="logical" name="LFXC"> F  </i>
   <i type="logical" name="LHARTREE"> T  </i>
   <i type="int" name="IBSE">     0</i>
   <i type="logical" name="LTCTE"> F  </i>
   <i type="logical" name="LTETE"> F  </i>
   <i type="logical" name="LTRIPLET"> F  </i>
   <i type="logical" name="LFXCEPS"> F  </i>
   <i type="logical" name="L2ORDER"> F  </i>
   <i type="logical" name="LUSEW"> F  </i>
   <i name="ENCUTGW">     -2.00000000</i>
   <i name="ENCUTGWSOFT">     -2.00000000</i>
   <i name="ENCUTLF">     -1.00000000</i>
   <i type="int" name="LMAXMP2">    -1</i>
   <i name="SCISSOR">      0.00000000</i>
   <i type="int" name="NOMEGA">     0</i>
   <i type="int" name="NOMEGAR">     0</i>
   <i type="int" name="NBANDSGW">    -1</i>
   <i type="int" name="NBANDSO">    -1</i>
   <i type="int" name="NBANDSV">    -1</i>
   <i type="int" name="NELM">    50</i>
   <i type="int" name="DIM">     3</i>
   <i type="int" name="ANTIRES">     0</i>
   <i name="OMEGAMAX">    -30.00000000</i>
   <i name="OMEGATL">   -200.00000000</i>
   <i type="int" name="OMEGAGRID">     0</i>
   <i name="CSHIFT">     -0.10000000</i>
   <i type="logical" name="SELFENERGY"> F  </i>
   <i type="logical" name="LSPECTRAL"> F  </i>
   <i type="logical" name="ODDONLYGW"> F  </i>
   <i type="logical" name="EVENONLYGW"> F  </i>
   <i type="int" name="NKREDLFX">     1</i>
   <i type="int" name="NKREDLFY">     1</i>
   <i type="int" name="NKREDLFZ">     1</i>
   <i type="int" name="MAXMEM">  1800</i>
   <i type="int" name="TELESCOPE">     0</i>
  </separator>
 </parameters>
 <atominfo>
  <atoms>       2 </atoms>
  <types>       1 </types>
  <array name="atoms" >
   <dimension dim="1">ion</dimension>
   <field type="string">element</field>
   <field type="int">atomtype</field>
   <set>
    <rc><c>C </c><c>   1</c></rc>
    <rc><c>C </c><c>   1</c></rc>
   </set>
  </array>
  <array name="atomtypes" >
   <dimension dim="1">type</dimension>
   <field type="int">atomspertype</field>
   <field type="string">element</field>
   <field>mass</field>
   <field>valence</field>
   <field type="string">pseudopotential</field>
   <set>
    <rc><c>   2</c><c>C </c><c>     12.01100000</c><c>      4.00000000</c><c>  PAW_PBE C 08Apr2002                   </c></rc>
   </set>
  </array>
 </atominfo>
 <structure name="initialpos" >
  <crystal>
   <varray name="basis" >
    <v>      -1.61399000       0.00000000       1.61399000 </v>
    <v>       0.00000000       1.61399000       1.61399000 </v>
    <v>      -1.61399000       1.61399000       0.00000000 </v>
   </varray>
   <i name="volume">      8.40877079 </i>
   <varray name="rec_basis" >
    <v>      -0.30979126      -0.30979126       0.30979126 </v>
    <v>       0.30979126       0.30979126       0.30979126 </v>
    <v>      -0.30979126       0.30979126      -0.30979126 </v>
   </varray>
  </crystal>
  <varray name="positions" >
   <v>       0.87500000       0.87500000       0.87500000 </v>
   <v>       0.12500000       0.12500000       0.12500000 </v>
  </varray>
 </structure>
 <calculation>
  <scstep>
   <time name="dav">    0.18    0.18</time>
   <time name="total">    0.21    0.21</time>
   <energy>
    <i name="alphaZ">     39.07668222 </i>
    <i name="ewald">   -384.48191759 </i>
    <i name="hartreedc">    -22.48874092 </i>
    <i name="XCdc">     30.47218822 </i>
    <i name="pawpsdc">   1265.23345519 </i>
    <i name="pawaedc">  -1266.75928346 </i>
    <i name="eentropy">      0.00000000 </i>
    <i name="bandstr">     28.16673167 </i>
    <i name="atom">    294.29684335 </i>
    <i name="e_fr_energy">    -16.48404133 </i>
    <i name="e_wo_entrp">    -16.48404133 </i>
    <i name="e_0_energy">    -16.48404133 </i>
   </energy>
  </scstep>
  <scstep>
   <time name="dav">    0.18    0.18</time>
   <time name="total">    0.21    0.21</time>
   <energy>
    <i name="e_fr_energy">    -16.48404133 </i>
    <i name="e_wo_entrp">    -16.48404133 </i>
    <i name="e_0_energy">    -16.48404133 </i>
   </energy>
  </scstep>
  <scstep>
   <time name="dav">    0.18    0.18</time>
   <time name="total">    0.21    0.21</time>
   <energy>
    <i name="e_fr_energy">    -16.48404133 </i>
    <i name="e_wo_entrp">    -16.48404133 </i>
    <i name="e_0_energy">    -16.48404133 </i>
   </energy>
  </scstep>
  <scstep>
   <time name="dav">    0.18    0.18</time>
   <time name="total">    0.21    0.21</time>
   <energy>
    <i name="e_fr_energy">    -16.48404133 </i>
    <i name="e_wo_entrp">    -16.48404133 </i>
    <i name="e_0_energy">    -16.48404133 </i>
   </energy>
  </scstep>
  <scstep>
   <time name="dav">    0.18    0.18</time>
   <time name="total">    0.19    0.19</time>
   <energy>
    <i name="alphaZ">     39.07668222 </i>
    <i name="ewald">   -384.48191759 </i>
    <i name="hartreedc">    -22.48864146 </i>
    <i name="XCdc">     30.47217991 </i>
    <i name="pawpsdc">   1265.23582577 </i>
    <i name="pawaedc">  -1266.76164727 </i>
    <i name="eentropy">      0.00000000 </i>
    <i name="bandstr">     28.16663374 </i>
    <i name="atom">    294.29684335 </i>
    <i name="e_fr_energy">    -16.48404133 </i>
    <i name="e_wo_entrp">    -16.48404133 </i>
    <i name="e_0_energy">    -16.48404133 </i>
   </energy>
  </scstep>
